+ 1 0 2 cbr 1000 ------- 0 0.0 4.0 0 0
- 1 0 2 cbr 1000 ------- 0 0.0 4.0 0 0
+ 1.004 0 2 cbr 1000 ------- 0 0.0 4.0 1 1
- 1.008 0 2 cbr 1000 ------- 0 0.0 4.0 1 1
+ 1.008 0 2 cbr 1000 ------- 0 0.0 4.0 2 2
+ 1.012 0 2 cbr 1000 ------- 0 0.0 4.0 3 3
- 1.016 0 2 cbr 1000 ------- 0 0.0 4.0 2 2
+ 1.016 0 2 cbr 1000 ------- 0 0.0 4.0 4 4
+ 1.02 0 2 cbr 1000 ------- 0 0.0 4.0 5 5
- 1.024 0 2 cbr 1000 ------- 0 0.0 4.0 3 3
+ 1.024 0 2 cbr 1000 ------- 0 0.0 4.0 6 6
r 1.028 0 2 cbr 1000 ------- 0 0.0 4.0 0 0
+ 1.028 2 3 cbr 1000 ------- 0 0.0 4.0 0 0
- 1.028 2 3 cbr 1000 ------- 0 0.0 4.0 0 0
+ 1.028 0 2 cbr 1000 ------- 0 0.0 4.0 7 7
- 1.032 0 2 cbr 1000 ------- 0 0.0 4.0 4 4
+ 1.032 0 2 cbr 1000 ------- 0 0.0 4.0 8 8
r 1.036 0 2 cbr 1000 ------- 0 0.0 4.0 1 1
+ 1.036 2 3 cbr 1000 ------- 0 0.0 4.0 1 1
- 1.036 2 3 cbr 1000 ------- 0 0.0 4.0 1 1
+ 1.036 0 2 cbr 1000 ------- 0 0.0 4.0 9 9
- 1.04 0 2 cbr 1000 ------- 0 0.0 4.0 5 5
+ 1.04 0 2 cbr 1000 ------- 0 0.0 4.0 10 10
r 1.044 0 2 cbr 1000 ------- 0 0.0 4.0 2 2
+ 1.044 2 3 cbr 1000 ------- 0 0.0 4.0 2 2
- 1.044 2 3 cbr 1000 ------- 0 0.0 4.0 2 2
+ 1.044 0 2 cbr 1000 ------- 0 0.0 4.0 11 11
- 1.048 0 2 cbr 1000 ------- 0 0.0 4.0 6 6
+ 1.048 0 2 cbr 1000 ------- 0 0.0 4.0 12 12
r 1.052 0 2 cbr 1000 ------- 0 0.0 4.0 3 3
+ 1.052 2 3 cbr 1000 ------- 0 0.0 4.0 3 3
- 1.052 2 3 cbr 1000 ------- 0 0.0 4.0 3 3
+ 1.052 0 2 cbr 1000 ------- 0 0.0 4.0 13 13
- 1.056 0 2 cbr 1000 ------- 0 0.0 4.0 7 7
+ 1.056 0 2 cbr 1000 ------- 0 0.0 4.0 14 14
r 1.06 0 2 cbr 1000 ------- 0 0.0 4.0 4 4
+ 1.06 2 3 cbr 1000 ------- 0 0.0 4.0 4 4
- 1.06 2 3 cbr 1000 ------- 0 0.0 4.0 4 4
+ 1.06 0 2 cbr 1000 ------- 0 0.0 4.0 15 15
- 1.064 0 2 cbr 1000 ------- 0 0.0 4.0 8 8
+ 1.064 0 2 cbr 1000 ------- 0 0.0 4.0 16 16
r 1.068 0 2 cbr 1000 ------- 0 0.0 4.0 5 5
+ 1.068 2 3 cbr 1000 ------- 0 0.0 4.0 5 5
- 1.068 2 3 cbr 1000 ------- 0 0.0 4.0 5 5
+ 1.068 0 2 cbr 1000 ------- 0 0.0 4.0 17 17
- 1.072 0 2 cbr 1000 ------- 0 0.0 4.0 9 9
+ 1.072 0 2 cbr 1000 ------- 0 0.0 4.0 18 18
r 1.076 2 3 cbr 1000 ------- 0 0.0 4.0 0 0
+ 1.076 3 4 cbr 1000 ------- 0 0.0 4.0 0 0
- 1.076 3 4 cbr 1000 ------- 0 0.0 4.0 0 0
r 1.076 0 2 cbr 1000 ------- 0 0.0 4.0 6 6
+ 1.076 2 3 cbr 1000 ------- 0 0.0 4.0 6 6
- 1.076 2 3 cbr 1000 ------- 0 0.0 4.0 6 6
+ 1.076 0 2 cbr 1000 ------- 0 0.0 4.0 19 19
- 1.08 0 2 cbr 1000 ------- 0 0.0 4.0 10 10
+ 1.08 0 2 cbr 1000 ------- 0 0.0 4.0 20 20
r 1.084 2 3 cbr 1000 ------- 0 0.0 4.0 1 1
+ 1.084 3 4 cbr 1000 ------- 0 0.0 4.0 1 1
r 1.084 0 2 cbr 1000 ------- 0 0.0 4.0 7 7
+ 1.084 2 3 cbr 1000 ------- 0 0.0 4.0 7 7
- 1.084 3 4 cbr 1000 ------- 0 0.0 4.0 1 1
- 1.084 2 3 cbr 1000 ------- 0 0.0 4.0 7 7
+ 1.084 0 2 cbr 1000 ------- 0 0.0 4.0 21 21
- 1.088 0 2 cbr 1000 ------- 0 0.0 4.0 11 11
+ 1.088 0 2 cbr 1000 ------- 0 0.0 4.0 22 22
r 1.092 2 3 cbr 1000 ------- 0 0.0 4.0 2 2
+ 1.092 3 4 cbr 1000 ------- 0 0.0 4.0 2 2
r 1.092 0 2 cbr 1000 ------- 0 0.0 4.0 8 8
+ 1.092 2 3 cbr 1000 ------- 0 0.0 4.0 8 8
- 1.092 3 4 cbr 1000 ------- 0 0.0 4.0 2 2
- 1.092 2 3 cbr 1000 ------- 0 0.0 4.0 8 8
+ 1.092 0 2 cbr 1000 ------- 0 0.0 4.0 23 23
- 1.096 0 2 cbr 1000 ------- 0 0.0 4.0 12 12
+ 1.096 0 2 cbr 1000 ------- 0 0.0 4.0 24 24
r 1.1 2 3 cbr 1000 ------- 0 0.0 4.0 3 3
+ 1.1 3 4 cbr 1000 ------- 0 0.0 4.0 3 3
r 1.1 0 2 cbr 1000 ------- 0 0.0 4.0 9 9
+ 1.1 2 3 cbr 1000 ------- 0 0.0 4.0 9 9
- 1.1 3 4 cbr 1000 ------- 0 0.0 4.0 3 3
- 1.1 2 3 cbr 1000 ------- 0 0.0 4.0 9 9
+ 1.1 0 2 cbr 1000 ------- 0 0.0 4.0 25 25
r 1.104 3 4 cbr 1000 ------- 0 0.0 4.0 0 0
- 1.104 0 2 cbr 1000 ------- 0 0.0 4.0 13 13
+ 1.104 0 2 cbr 1000 ------- 0 0.0 4.0 26 26
r 1.108 2 3 cbr 1000 ------- 0 0.0 4.0 4 4
+ 1.108 3 4 cbr 1000 ------- 0 0.0 4.0 4 4
r 1.108 0 2 cbr 1000 ------- 0 0.0 4.0 10 10
+ 1.108 2 3 cbr 1000 ------- 0 0.0 4.0 10 10
- 1.108 3 4 cbr 1000 ------- 0 0.0 4.0 4 4
- 1.108 2 3 cbr 1000 ------- 0 0.0 4.0 10 10
+ 1.108 0 2 cbr 1000 ------- 0 0.0 4.0 27 27
r 1.112 3 4 cbr 1000 ------- 0 0.0 4.0 1 1
- 1.112 0 2 cbr 1000 ------- 0 0.0 4.0 14 14
+ 1.112 0 2 cbr 1000 ------- 0 0.0 4.0 28 28
r 1.116 2 3 cbr 1000 ------- 0 0.0 4.0 5 5
+ 1.116 3 4 cbr 1000 ------- 0 0.0 4.0 5 5
r 1.116 0 2 cbr 1000 ------- 0 0.0 4.0 11 11
+ 1.116 2 3 cbr 1000 ------- 0 0.0 4.0 11 11
- 1.116 3 4 cbr 1000 ------- 0 0.0 4.0 5 5
- 1.116 2 3 cbr 1000 ------- 0 0.0 4.0 11 11
+ 1.116 0 2 cbr 1000 ------- 0 0.0 4.0 29 29
r 1.12 3 4 cbr 1000 ------- 0 0.0 4.0 2 2
- 1.12 0 2 cbr 1000 ------- 0 0.0 4.0 15 15
+ 1.12 0 2 cbr 1000 ------- 0 0.0 4.0 30 30
r 1.124 2 3 cbr 1000 ------- 0 0.0 4.0 6 6
+ 1.124 3 4 cbr 1000 ------- 0 0.0 4.0 6 6
r 1.124 0 2 cbr 1000 ------- 0 0.0 4.0 12 12
+ 1.124 2 3 cbr 1000 ------- 0 0.0 4.0 12 12
- 1.124 3 4 cbr 1000 ------- 0 0.0 4.0 6 6
- 1.124 2 3 cbr 1000 ------- 0 0.0 4.0 12 12
+ 1.124 0 2 cbr 1000 ------- 0 0.0 4.0 31 31
r 1.128 3 4 cbr 1000 ------- 0 0.0 4.0 3 3
- 1.128 0 2 cbr 1000 ------- 0 0.0 4.0 16 16
+ 1.128 0 2 cbr 1000 ------- 0 0.0 4.0 32 32
r 1.132 2 3 cbr 1000 ------- 0 0.0 4.0 7 7
+ 1.132 3 4 cbr 1000 ------- 0 0.0 4.0 7 7
r 1.132 0 2 cbr 1000 ------- 0 0.0 4.0 13 13
+ 1.132 2 3 cbr 1000 ------- 0 0.0 4.0 13 13
- 1.132 3 4 cbr 1000 ------- 0 0.0 4.0 7 7
- 1.132 2 3 cbr 1000 ------- 0 0.0 4.0 13 13
+ 1.132 0 2 cbr 1000 ------- 0 0.0 4.0 33 33
r 1.136 3 4 cbr 1000 ------- 0 0.0 4.0 4 4
- 1.136 0 2 cbr 1000 ------- 0 0.0 4.0 17 17
+ 1.136 0 2 cbr 1000 ------- 0 0.0 4.0 34 34
r 1.14 2 3 cbr 1000 ------- 0 0.0 4.0 8 8
+ 1.14 3 4 cbr 1000 ------- 0 0.0 4.0 8 8
r 1.14 0 2 cbr 1000 ------- 0 0.0 4.0 14 14
+ 1.14 2 3 cbr 1000 ------- 0 0.0 4.0 14 14
- 1.14 3 4 cbr 1000 ------- 0 0.0 4.0 8 8
- 1.14 2 3 cbr 1000 ------- 0 0.0 4.0 14 14
+ 1.14 0 2 cbr 1000 ------- 0 0.0 4.0 35 35
r 1.144 3 4 cbr 1000 ------- 0 0.0 4.0 5 5
- 1.144 0 2 cbr 1000 ------- 0 0.0 4.0 18 18
+ 1.144 0 2 cbr 1000 ------- 0 0.0 4.0 36 36
r 1.148 2 3 cbr 1000 ------- 0 0.0 4.0 9 9
+ 1.148 3 4 cbr 1000 ------- 0 0.0 4.0 9 9
r 1.148 0 2 cbr 1000 ------- 0 0.0 4.0 15 15
+ 1.148 2 3 cbr 1000 ------- 0 0.0 4.0 15 15
- 1.148 3 4 cbr 1000 ------- 0 0.0 4.0 9 9
- 1.148 2 3 cbr 1000 ------- 0 0.0 4.0 15 15
+ 1.148 0 2 cbr 1000 ------- 0 0.0 4.0 37 37
r 1.152 3 4 cbr 1000 ------- 0 0.0 4.0 6 6
- 1.152 0 2 cbr 1000 ------- 0 0.0 4.0 19 19
+ 1.152 0 2 cbr 1000 ------- 0 0.0 4.0 38 38
r 1.156 2 3 cbr 1000 ------- 0 0.0 4.0 10 10
+ 1.156 3 4 cbr 1000 ------- 0 0.0 4.0 10 10
r 1.156 0 2 cbr 1000 ------- 0 0.0 4.0 16 16
+ 1.156 2 3 cbr 1000 ------- 0 0.0 4.0 16 16
- 1.156 3 4 cbr 1000 ------- 0 0.0 4.0 10 10
- 1.156 2 3 cbr 1000 ------- 0 0.0 4.0 16 16
+ 1.156 0 2 cbr 1000 ------- 0 0.0 4.0 39 39
r 1.16 3 4 cbr 1000 ------- 0 0.0 4.0 7 7
- 1.16 0 2 cbr 1000 ------- 0 0.0 4.0 20 20
+ 1.16 0 2 cbr 1000 ------- 0 0.0 4.0 40 40
r 1.164 2 3 cbr 1000 ------- 0 0.0 4.0 11 11
+ 1.164 3 4 cbr 1000 ------- 0 0.0 4.0 11 11
r 1.164 0 2 cbr 1000 ------- 0 0.0 4.0 17 17
+ 1.164 2 3 cbr 1000 ------- 0 0.0 4.0 17 17
- 1.164 3 4 cbr 1000 ------- 0 0.0 4.0 11 11
- 1.164 2 3 cbr 1000 ------- 0 0.0 4.0 17 17
+ 1.164 0 2 cbr 1000 ------- 0 0.0 4.0 41 41
r 1.168 3 4 cbr 1000 ------- 0 0.0 4.0 8 8
- 1.168 0 2 cbr 1000 ------- 0 0.0 4.0 21 21
+ 1.168 0 2 cbr 1000 ------- 0 0.0 4.0 42 42
r 1.172 2 3 cbr 1000 ------- 0 0.0 4.0 12 12
+ 1.172 3 4 cbr 1000 ------- 0 0.0 4.0 12 12
r 1.172 0 2 cbr 1000 ------- 0 0.0 4.0 18 18
+ 1.172 2 3 cbr 1000 ------- 0 0.0 4.0 18 18
- 1.172 3 4 cbr 1000 ------- 0 0.0 4.0 12 12
- 1.172 2 3 cbr 1000 ------- 0 0.0 4.0 18 18
+ 1.172 0 2 cbr 1000 ------- 0 0.0 4.0 43 43
r 1.176 3 4 cbr 1000 ------- 0 0.0 4.0 9 9
- 1.176 0 2 cbr 1000 ------- 0 0.0 4.0 22 22
+ 1.176 0 2 cbr 1000 ------- 0 0.0 4.0 44 44
r 1.18 2 3 cbr 1000 ------- 0 0.0 4.0 13 13
+ 1.18 3 4 cbr 1000 ------- 0 0.0 4.0 13 13
r 1.18 0 2 cbr 1000 ------- 0 0.0 4.0 19 19
+ 1.18 2 3 cbr 1000 ------- 0 0.0 4.0 19 19
- 1.18 3 4 cbr 1000 ------- 0 0.0 4.0 13 13
- 1.18 2 3 cbr 1000 ------- 0 0.0 4.0 19 19
+ 1.18 0 2 cbr 1000 ------- 0 0.0 4.0 45 45
r 1.184 3 4 cbr 1000 ------- 0 0.0 4.0 10 10
- 1.184 0 2 cbr 1000 ------- 0 0.0 4.0 23 23
+ 1.184 0 2 cbr 1000 ------- 0 0.0 4.0 46 46
r 1.188 2 3 cbr 1000 ------- 0 0.0 4.0 14 14
+ 1.188 3 4 cbr 1000 ------- 0 0.0 4.0 14 14
r 1.188 0 2 cbr 1000 ------- 0 0.0 4.0 20 20
+ 1.188 2 3 cbr 1000 ------- 0 0.0 4.0 20 20
- 1.188 3 4 cbr 1000 ------- 0 0.0 4.0 14 14
- 1.188 2 3 cbr 1000 ------- 0 0.0 4.0 20 20
+ 1.188 0 2 cbr 1000 ------- 0 0.0 4.0 47 47
r 1.192 3 4 cbr 1000 ------- 0 0.0 4.0 11 11
- 1.192 0 2 cbr 1000 ------- 0 0.0 4.0 24 24
+ 1.192 0 2 cbr 1000 ------- 0 0.0 4.0 48 48
r 1.196 2 3 cbr 1000 ------- 0 0.0 4.0 15 15
+ 1.196 3 4 cbr 1000 ------- 0 0.0 4.0 15 15
r 1.196 0 2 cbr 1000 ------- 0 0.0 4.0 21 21
+ 1.196 2 3 cbr 1000 ------- 0 0.0 4.0 21 21
- 1.196 3 4 cbr 1000 ------- 0 0.0 4.0 15 15
- 1.196 2 3 cbr 1000 ------- 0 0.0 4.0 21 21
+ 1.196 0 2 cbr 1000 ------- 0 0.0 4.0 49 49
r 1.2 3 4 cbr 1000 ------- 0 0.0 4.0 12 12
- 1.2 0 2 cbr 1000 ------- 0 0.0 4.0 25 25
+ 1.2 0 2 cbr 1000 ------- 0 0.0 4.0 50 50
r 1.204 2 3 cbr 1000 ------- 0 0.0 4.0 16 16
+ 1.204 3 4 cbr 1000 ------- 0 0.0 4.0 16 16
r 1.204 0 2 cbr 1000 ------- 0 0.0 4.0 22 22
+ 1.204 2 3 cbr 1000 ------- 0 0.0 4.0 22 22
- 1.204 3 4 cbr 1000 ------- 0 0.0 4.0 16 16
- 1.204 2 3 cbr 1000 ------- 0 0.0 4.0 22 22
+ 1.204 0 2 cbr 1000 ------- 0 0.0 4.0 51 51
r 1.208 3 4 cbr 1000 ------- 0 0.0 4.0 13 13
- 1.208 0 2 cbr 1000 ------- 0 0.0 4.0 26 26
+ 1.208 0 2 cbr 1000 ------- 0 0.0 4.0 52 52
r 1.212 2 3 cbr 1000 ------- 0 0.0 4.0 17 17
+ 1.212 3 4 cbr 1000 ------- 0 0.0 4.0 17 17
r 1.212 0 2 cbr 1000 ------- 0 0.0 4.0 23 23
+ 1.212 2 3 cbr 1000 ------- 0 0.0 4.0 23 23
- 1.212 3 4 cbr 1000 ------- 0 0.0 4.0 17 17
- 1.212 2 3 cbr 1000 ------- 0 0.0 4.0 23 23
+ 1.212 0 2 cbr 1000 ------- 0 0.0 4.0 53 53
r 1.216 3 4 cbr 1000 ------- 0 0.0 4.0 14 14
- 1.216 0 2 cbr 1000 ------- 0 0.0 4.0 27 27
+ 1.216 0 2 cbr 1000 ------- 0 0.0 4.0 54 54
r 1.22 2 3 cbr 1000 ------- 0 0.0 4.0 18 18
+ 1.22 3 4 cbr 1000 ------- 0 0.0 4.0 18 18
r 1.22 0 2 cbr 1000 ------- 0 0.0 4.0 24 24
+ 1.22 2 3 cbr 1000 ------- 0 0.0 4.0 24 24
- 1.22 3 4 cbr 1000 ------- 0 0.0 4.0 18 18
- 1.22 2 3 cbr 1000 ------- 0 0.0 4.0 24 24
+ 1.22 0 2 cbr 1000 ------- 0 0.0 4.0 55 55
r 1.224 3 4 cbr 1000 ------- 0 0.0 4.0 15 15
- 1.224 0 2 cbr 1000 ------- 0 0.0 4.0 28 28
+ 1.224 0 2 cbr 1000 ------- 0 0.0 4.0 56 56
r 1.228 2 3 cbr 1000 ------- 0 0.0 4.0 19 19
+ 1.228 3 4 cbr 1000 ------- 0 0.0 4.0 19 19
r 1.228 0 2 cbr 1000 ------- 0 0.0 4.0 25 25
+ 1.228 2 3 cbr 1000 ------- 0 0.0 4.0 25 25
- 1.228 3 4 cbr 1000 ------- 0 0.0 4.0 19 19
- 1.228 2 3 cbr 1000 ------- 0 0.0 4.0 25 25
+ 1.228 0 2 cbr 1000 ------- 0 0.0 4.0 57 57
r 1.232 3 4 cbr 1000 ------- 0 0.0 4.0 16 16
- 1.232 0 2 cbr 1000 ------- 0 0.0 4.0 29 29
+ 1.232 0 2 cbr 1000 ------- 0 0.0 4.0 58 58
r 1.236 2 3 cbr 1000 ------- 0 0.0 4.0 20 20
+ 1.236 3 4 cbr 1000 ------- 0 0.0 4.0 20 20
r 1.236 0 2 cbr 1000 ------- 0 0.0 4.0 26 26
+ 1.236 2 3 cbr 1000 ------- 0 0.0 4.0 26 26
- 1.236 3 4 cbr 1000 ------- 0 0.0 4.0 20 20
- 1.236 2 3 cbr 1000 ------- 0 0.0 4.0 26 26
+ 1.236 0 2 cbr 1000 ------- 0 0.0 4.0 59 59
r 1.24 3 4 cbr 1000 ------- 0 0.0 4.0 17 17
- 1.24 0 2 cbr 1000 ------- 0 0.0 4.0 30 30
+ 1.24 0 2 cbr 1000 ------- 0 0.0 4.0 60 60
r 1.244 2 3 cbr 1000 ------- 0 0.0 4.0 21 21
+ 1.244 3 4 cbr 1000 ------- 0 0.0 4.0 21 21
r 1.244 0 2 cbr 1000 ------- 0 0.0 4.0 27 27
+ 1.244 2 3 cbr 1000 ------- 0 0.0 4.0 27 27
- 1.244 3 4 cbr 1000 ------- 0 0.0 4.0 21 21
- 1.244 2 3 cbr 1000 ------- 0 0.0 4.0 27 27
+ 1.244 0 2 cbr 1000 ------- 0 0.0 4.0 61 61
r 1.248 3 4 cbr 1000 ------- 0 0.0 4.0 18 18
- 1.248 0 2 cbr 1000 ------- 0 0.0 4.0 31 31
+ 1.248 0 2 cbr 1000 ------- 0 0.0 4.0 62 62
r 1.252 2 3 cbr 1000 ------- 0 0.0 4.0 22 22
+ 1.252 3 4 cbr 1000 ------- 0 0.0 4.0 22 22
r 1.252 0 2 cbr 1000 ------- 0 0.0 4.0 28 28
+ 1.252 2 3 cbr 1000 ------- 0 0.0 4.0 28 28
- 1.252 3 4 cbr 1000 ------- 0 0.0 4.0 22 22
- 1.252 2 3 cbr 1000 ------- 0 0.0 4.0 28 28
+ 1.252 0 2 cbr 1000 ------- 0 0.0 4.0 63 63
r 1.256 3 4 cbr 1000 ------- 0 0.0 4.0 19 19
- 1.256 0 2 cbr 1000 ------- 0 0.0 4.0 32 32
+ 1.256 0 2 cbr 1000 ------- 0 0.0 4.0 64 64
r 1.26 2 3 cbr 1000 ------- 0 0.0 4.0 23 23
+ 1.26 3 4 cbr 1000 ------- 0 0.0 4.0 23 23
r 1.26 0 2 cbr 1000 ------- 0 0.0 4.0 29 29
+ 1.26 2 3 cbr 1000 ------- 0 0.0 4.0 29 29
- 1.26 3 4 cbr 1000 ------- 0 0.0 4.0 23 23
- 1.26 2 3 cbr 1000 ------- 0 0.0 4.0 29 29
+ 1.26 0 2 cbr 1000 ------- 0 0.0 4.0 65 65
r 1.264 3 4 cbr 1000 ------- 0 0.0 4.0 20 20
- 1.264 0 2 cbr 1000 ------- 0 0.0 4.0 33 33
+ 1.264 0 2 cbr 1000 ------- 0 0.0 4.0 66 66
r 1.268 2 3 cbr 1000 ------- 0 0.0 4.0 24 24
+ 1.268 3 4 cbr 1000 ------- 0 0.0 4.0 24 24
r 1.268 0 2 cbr 1000 ------- 0 0.0 4.0 30 30
+ 1.268 2 3 cbr 1000 ------- 0 0.0 4.0 30 30
- 1.268 3 4 cbr 1000 ------- 0 0.0 4.0 24 24
- 1.268 2 3 cbr 1000 ------- 0 0.0 4.0 30 30
+ 1.268 0 2 cbr 1000 ------- 0 0.0 4.0 67 67
r 1.272 3 4 cbr 1000 ------- 0 0.0 4.0 21 21
- 1.272 0 2 cbr 1000 ------- 0 0.0 4.0 34 34
+ 1.272 0 2 cbr 1000 ------- 0 0.0 4.0 68 68
r 1.276 2 3 cbr 1000 ------- 0 0.0 4.0 25 25
+ 1.276 3 4 cbr 1000 ------- 0 0.0 4.0 25 25
r 1.276 0 2 cbr 1000 ------- 0 0.0 4.0 31 31
+ 1.276 2 3 cbr 1000 ------- 0 0.0 4.0 31 31
- 1.276 3 4 cbr 1000 ------- 0 0.0 4.0 25 25
- 1.276 2 3 cbr 1000 ------- 0 0.0 4.0 31 31
+ 1.276 0 2 cbr 1000 ------- 0 0.0 4.0 69 69
r 1.28 3 4 cbr 1000 ------- 0 0.0 4.0 22 22
- 1.28 0 2 cbr 1000 ------- 0 0.0 4.0 35 35
+ 1.28 0 2 cbr 1000 ------- 0 0.0 4.0 70 70
r 1.284 2 3 cbr 1000 ------- 0 0.0 4.0 26 26
+ 1.284 3 4 cbr 1000 ------- 0 0.0 4.0 26 26
r 1.284 0 2 cbr 1000 ------- 0 0.0 4.0 32 32
+ 1.284 2 3 cbr 1000 ------- 0 0.0 4.0 32 32
- 1.284 3 4 cbr 1000 ------- 0 0.0 4.0 26 26
- 1.284 2 3 cbr 1000 ------- 0 0.0 4.0 32 32
+ 1.284 0 2 cbr 1000 ------- 0 0.0 4.0 71 71
r 1.288 3 4 cbr 1000 ------- 0 0.0 4.0 23 23
- 1.288 0 2 cbr 1000 ------- 0 0.0 4.0 36 36
+ 1.288 0 2 cbr 1000 ------- 0 0.0 4.0 72 72
r 1.292 2 3 cbr 1000 ------- 0 0.0 4.0 27 27
+ 1.292 3 4 cbr 1000 ------- 0 0.0 4.0 27 27
r 1.292 0 2 cbr 1000 ------- 0 0.0 4.0 33 33
+ 1.292 2 3 cbr 1000 ------- 0 0.0 4.0 33 33
- 1.292 3 4 cbr 1000 ------- 0 0.0 4.0 27 27
- 1.292 2 3 cbr 1000 ------- 0 0.0 4.0 33 33
+ 1.292 0 2 cbr 1000 ------- 0 0.0 4.0 73 73
r 1.296 3 4 cbr 1000 ------- 0 0.0 4.0 24 24
- 1.296 0 2 cbr 1000 ------- 0 0.0 4.0 37 37
+ 1.296 0 2 cbr 1000 ------- 0 0.0 4.0 74 74
r 1.3 2 3 cbr 1000 ------- 0 0.0 4.0 28 28
+ 1.3 3 4 cbr 1000 ------- 0 0.0 4.0 28 28
r 1.3 0 2 cbr 1000 ------- 0 0.0 4.0 34 34
+ 1.3 2 3 cbr 1000 ------- 0 0.0 4.0 34 34
- 1.3 3 4 cbr 1000 ------- 0 0.0 4.0 28 28
- 1.3 2 3 cbr 1000 ------- 0 0.0 4.0 34 34
+ 1.3 0 2 cbr 1000 ------- 0 0.0 4.0 75 75
r 1.304 3 4 cbr 1000 ------- 0 0.0 4.0 25 25
- 1.304 0 2 cbr 1000 ------- 0 0.0 4.0 38 38
+ 1.304 0 2 cbr 1000 ------- 0 0.0 4.0 76 76
r 1.308 2 3 cbr 1000 ------- 0 0.0 4.0 29 29
+ 1.308 3 4 cbr 1000 ------- 0 0.0 4.0 29 29
r 1.308 0 2 cbr 1000 ------- 0 0.0 4.0 35 35
+ 1.308 2 3 cbr 1000 ------- 0 0.0 4.0 35 35
- 1.308 3 4 cbr 1000 ------- 0 0.0 4.0 29 29
- 1.308 2 3 cbr 1000 ------- 0 0.0 4.0 35 35
+ 1.308 0 2 cbr 1000 ------- 0 0.0 4.0 77 77
r 1.312 3 4 cbr 1000 ------- 0 0.0 4.0 26 26
- 1.312 0 2 cbr 1000 ------- 0 0.0 4.0 39 39
+ 1.312 0 2 cbr 1000 ------- 0 0.0 4.0 78 78
r 1.316 2 3 cbr 1000 ------- 0 0.0 4.0 30 30
+ 1.316 3 4 cbr 1000 ------- 0 0.0 4.0 30 30
r 1.316 0 2 cbr 1000 ------- 0 0.0 4.0 36 36
+ 1.316 2 3 cbr 1000 ------- 0 0.0 4.0 36 36
- 1.316 3 4 cbr 1000 ------- 0 0.0 4.0 30 30
- 1.316 2 3 cbr 1000 ------- 0 0.0 4.0 36 36
+ 1.316 0 2 cbr 1000 ------- 0 0.0 4.0 79 79
r 1.32 3 4 cbr 1000 ------- 0 0.0 4.0 27 27
- 1.32 0 2 cbr 1000 ------- 0 0.0 4.0 40 40
+ 1.32 0 2 cbr 1000 ------- 0 0.0 4.0 80 80
r 1.324 2 3 cbr 1000 ------- 0 0.0 4.0 31 31
+ 1.324 3 4 cbr 1000 ------- 0 0.0 4.0 31 31
r 1.324 0 2 cbr 1000 ------- 0 0.0 4.0 37 37
+ 1.324 2 3 cbr 1000 ------- 0 0.0 4.0 37 37
- 1.324 3 4 cbr 1000 ------- 0 0.0 4.0 31 31
- 1.324 2 3 cbr 1000 ------- 0 0.0 4.0 37 37
+ 1.324 0 2 cbr 1000 ------- 0 0.0 4.0 81 81
r 1.328 3 4 cbr 1000 ------- 0 0.0 4.0 28 28
- 1.328 0 2 cbr 1000 ------- 0 0.0 4.0 41 41
+ 1.328 0 2 cbr 1000 ------- 0 0.0 4.0 82 82
r 1.332 2 3 cbr 1000 ------- 0 0.0 4.0 32 32
+ 1.332 3 4 cbr 1000 ------- 0 0.0 4.0 32 32
r 1.332 0 2 cbr 1000 ------- 0 0.0 4.0 38 38
+ 1.332 2 3 cbr 1000 ------- 0 0.0 4.0 38 38
- 1.332 3 4 cbr 1000 ------- 0 0.0 4.0 32 32
- 1.332 2 3 cbr 1000 ------- 0 0.0 4.0 38 38
+ 1.332 0 2 cbr 1000 ------- 0 0.0 4.0 83 83
r 1.336 3 4 cbr 1000 ------- 0 0.0 4.0 29 29
- 1.336 0 2 cbr 1000 ------- 0 0.0 4.0 42 42
+ 1.336 0 2 cbr 1000 ------- 0 0.0 4.0 84 84
r 1.34 2 3 cbr 1000 ------- 0 0.0 4.0 33 33
+ 1.34 3 4 cbr 1000 ------- 0 0.0 4.0 33 33
r 1.34 0 2 cbr 1000 ------- 0 0.0 4.0 39 39
+ 1.34 2 3 cbr 1000 ------- 0 0.0 4.0 39 39
- 1.34 3 4 cbr 1000 ------- 0 0.0 4.0 33 33
- 1.34 2 3 cbr 1000 ------- 0 0.0 4.0 39 39
+ 1.34 0 2 cbr 1000 ------- 0 0.0 4.0 85 85
r 1.344 3 4 cbr 1000 ------- 0 0.0 4.0 30 30
- 1.344 0 2 cbr 1000 ------- 0 0.0 4.0 43 43
+ 1.344 0 2 cbr 1000 ------- 0 0.0 4.0 86 86
r 1.348 2 3 cbr 1000 ------- 0 0.0 4.0 34 34
+ 1.348 3 4 cbr 1000 ------- 0 0.0 4.0 34 34
r 1.348 0 2 cbr 1000 ------- 0 0.0 4.0 40 40
+ 1.348 2 3 cbr 1000 ------- 0 0.0 4.0 40 40
- 1.348 3 4 cbr 1000 ------- 0 0.0 4.0 34 34
- 1.348 2 3 cbr 1000 ------- 0 0.0 4.0 40 40
+ 1.348 0 2 cbr 1000 ------- 0 0.0 4.0 87 87
r 1.352 3 4 cbr 1000 ------- 0 0.0 4.0 31 31
- 1.352 0 2 cbr 1000 ------- 0 0.0 4.0 44 44
+ 1.352 0 2 cbr 1000 ------- 0 0.0 4.0 88 88
r 1.356 2 3 cbr 1000 ------- 0 0.0 4.0 35 35
+ 1.356 3 4 cbr 1000 ------- 0 0.0 4.0 35 35
r 1.356 0 2 cbr 1000 ------- 0 0.0 4.0 41 41
+ 1.356 2 3 cbr 1000 ------- 0 0.0 4.0 41 41
- 1.356 3 4 cbr 1000 ------- 0 0.0 4.0 35 35
- 1.356 2 3 cbr 1000 ------- 0 0.0 4.0 41 41
+ 1.356 0 2 cbr 1000 ------- 0 0.0 4.0 89 89
r 1.36 3 4 cbr 1000 ------- 0 0.0 4.0 32 32
- 1.36 0 2 cbr 1000 ------- 0 0.0 4.0 45 45
+ 1.36 0 2 cbr 1000 ------- 0 0.0 4.0 90 90
r 1.364 2 3 cbr 1000 ------- 0 0.0 4.0 36 36
+ 1.364 3 4 cbr 1000 ------- 0 0.0 4.0 36 36
r 1.364 0 2 cbr 1000 ------- 0 0.0 4.0 42 42
+ 1.364 2 3 cbr 1000 ------- 0 0.0 4.0 42 42
- 1.364 3 4 cbr 1000 ------- 0 0.0 4.0 36 36
- 1.364 2 3 cbr 1000 ------- 0 0.0 4.0 42 42
+ 1.364 0 2 cbr 1000 ------- 0 0.0 4.0 91 91
r 1.368 3 4 cbr 1000 ------- 0 0.0 4.0 33 33
- 1.368 0 2 cbr 1000 ------- 0 0.0 4.0 46 46
+ 1.368 0 2 cbr 1000 ------- 0 0.0 4.0 92 92
r 1.372 2 3 cbr 1000 ------- 0 0.0 4.0 37 37
+ 1.372 3 4 cbr 1000 ------- 0 0.0 4.0 37 37
r 1.372 0 2 cbr 1000 ------- 0 0.0 4.0 43 43
+ 1.372 2 3 cbr 1000 ------- 0 0.0 4.0 43 43
- 1.372 3 4 cbr 1000 ------- 0 0.0 4.0 37 37
- 1.372 2 3 cbr 1000 ------- 0 0.0 4.0 43 43
+ 1.372 0 2 cbr 1000 ------- 0 0.0 4.0 93 93
r 1.376 3 4 cbr 1000 ------- 0 0.0 4.0 34 34
- 1.376 0 2 cbr 1000 ------- 0 0.0 4.0 47 47
+ 1.376 0 2 cbr 1000 ------- 0 0.0 4.0 94 94
r 1.38 2 3 cbr 1000 ------- 0 0.0 4.0 38 38
+ 1.38 3 4 cbr 1000 ------- 0 0.0 4.0 38 38
r 1.38 0 2 cbr 1000 ------- 0 0.0 4.0 44 44
+ 1.38 2 3 cbr 1000 ------- 0 0.0 4.0 44 44
- 1.38 3 4 cbr 1000 ------- 0 0.0 4.0 38 38
- 1.38 2 3 cbr 1000 ------- 0 0.0 4.0 44 44
+ 1.38 0 2 cbr 1000 ------- 0 0.0 4.0 95 95
r 1.384 3 4 cbr 1000 ------- 0 0.0 4.0 35 35
- 1.384 0 2 cbr 1000 ------- 0 0.0 4.0 48 48
+ 1.384 0 2 cbr 1000 ------- 0 0.0 4.0 96 96
r 1.388 2 3 cbr 1000 ------- 0 0.0 4.0 39 39
+ 1.388 3 4 cbr 1000 ------- 0 0.0 4.0 39 39
r 1.388 0 2 cbr 1000 ------- 0 0.0 4.0 45 45
+ 1.388 2 3 cbr 1000 ------- 0 0.0 4.0 45 45
- 1.388 3 4 cbr 1000 ------- 0 0.0 4.0 39 39
- 1.388 2 3 cbr 1000 ------- 0 0.0 4.0 45 45
+ 1.388 0 2 cbr 1000 ------- 0 0.0 4.0 97 97
r 1.392 3 4 cbr 1000 ------- 0 0.0 4.0 36 36
- 1.392 0 2 cbr 1000 ------- 0 0.0 4.0 49 49
+ 1.392 0 2 cbr 1000 ------- 0 0.0 4.0 98 98
r 1.396 2 3 cbr 1000 ------- 0 0.0 4.0 40 40
+ 1.396 3 4 cbr 1000 ------- 0 0.0 4.0 40 40
r 1.396 0 2 cbr 1000 ------- 0 0.0 4.0 46 46
+ 1.396 2 3 cbr 1000 ------- 0 0.0 4.0 46 46
- 1.396 3 4 cbr 1000 ------- 0 0.0 4.0 40 40
- 1.396 2 3 cbr 1000 ------- 0 0.0 4.0 46 46
+ 1.396 0 2 cbr 1000 ------- 0 0.0 4.0 99 99
d 1.396 0 2 cbr 1000 ------- 0 0.0 4.0 99 99
r 1.4 3 4 cbr 1000 ------- 0 0.0 4.0 37 37
- 1.4 0 2 cbr 1000 ------- 0 0.0 4.0 50 50
+ 1.4 0 2 cbr 1000 ------- 0 0.0 4.0 100 100
r 1.404 2 3 cbr 1000 ------- 0 0.0 4.0 41 41
+ 1.404 3 4 cbr 1000 ------- 0 0.0 4.0 41 41
r 1.404 0 2 cbr 1000 ------- 0 0.0 4.0 47 47
+ 1.404 2 3 cbr 1000 ------- 0 0.0 4.0 47 47
- 1.404 3 4 cbr 1000 ------- 0 0.0 4.0 41 41
- 1.404 2 3 cbr 1000 ------- 0 0.0 4.0 47 47
+ 1.404 0 2 cbr 1000 ------- 0 0.0 4.0 101 101
d 1.404 0 2 cbr 1000 ------- 0 0.0 4.0 101 101
r 1.408 3 4 cbr 1000 ------- 0 0.0 4.0 38 38
- 1.408 0 2 cbr 1000 ------- 0 0.0 4.0 51 51
+ 1.408 0 2 cbr 1000 ------- 0 0.0 4.0 102 102
r 1.412 2 3 cbr 1000 ------- 0 0.0 4.0 42 42
+ 1.412 3 4 cbr 1000 ------- 0 0.0 4.0 42 42
r 1.412 0 2 cbr 1000 ------- 0 0.0 4.0 48 48
+ 1.412 2 3 cbr 1000 ------- 0 0.0 4.0 48 48
- 1.412 3 4 cbr 1000 ------- 0 0.0 4.0 42 42
- 1.412 2 3 cbr 1000 ------- 0 0.0 4.0 48 48
+ 1.412 0 2 cbr 1000 ------- 0 0.0 4.0 103 103
d 1.412 0 2 cbr 1000 ------- 0 0.0 4.0 103 103
r 1.416 3 4 cbr 1000 ------- 0 0.0 4.0 39 39
- 1.416 0 2 cbr 1000 ------- 0 0.0 4.0 52 52
+ 1.416 0 2 cbr 1000 ------- 0 0.0 4.0 104 104
r 1.42 2 3 cbr 1000 ------- 0 0.0 4.0 43 43
+ 1.42 3 4 cbr 1000 ------- 0 0.0 4.0 43 43
r 1.42 0 2 cbr 1000 ------- 0 0.0 4.0 49 49
+ 1.42 2 3 cbr 1000 ------- 0 0.0 4.0 49 49
- 1.42 3 4 cbr 1000 ------- 0 0.0 4.0 43 43
- 1.42 2 3 cbr 1000 ------- 0 0.0 4.0 49 49
+ 1.42 0 2 cbr 1000 ------- 0 0.0 4.0 105 105
d 1.42 0 2 cbr 1000 ------- 0 0.0 4.0 105 105
r 1.424 3 4 cbr 1000 ------- 0 0.0 4.0 40 40
- 1.424 0 2 cbr 1000 ------- 0 0.0 4.0 53 53
+ 1.424 0 2 cbr 1000 ------- 0 0.0 4.0 106 106
r 1.428 2 3 cbr 1000 ------- 0 0.0 4.0 44 44
+ 1.428 3 4 cbr 1000 ------- 0 0.0 4.0 44 44
r 1.428 0 2 cbr 1000 ------- 0 0.0 4.0 50 50
+ 1.428 2 3 cbr 1000 ------- 0 0.0 4.0 50 50
- 1.428 3 4 cbr 1000 ------- 0 0.0 4.0 44 44
- 1.428 2 3 cbr 1000 ------- 0 0.0 4.0 50 50
+ 1.428 0 2 cbr 1000 ------- 0 0.0 4.0 107 107
d 1.428 0 2 cbr 1000 ------- 0 0.0 4.0 107 107
r 1.432 3 4 cbr 1000 ------- 0 0.0 4.0 41 41
- 1.432 0 2 cbr 1000 ------- 0 0.0 4.0 54 54
+ 1.432 0 2 cbr 1000 ------- 0 0.0 4.0 108 108
r 1.436 2 3 cbr 1000 ------- 0 0.0 4.0 45 45
+ 1.436 3 4 cbr 1000 ------- 0 0.0 4.0 45 45
r 1.436 0 2 cbr 1000 ------- 0 0.0 4.0 51 51
+ 1.436 2 3 cbr 1000 ------- 0 0.0 4.0 51 51
- 1.436 3 4 cbr 1000 ------- 0 0.0 4.0 45 45
- 1.436 2 3 cbr 1000 ------- 0 0.0 4.0 51 51
+ 1.436 0 2 cbr 1000 ------- 0 0.0 4.0 109 109
d 1.436 0 2 cbr 1000 ------- 0 0.0 4.0 109 109
r 1.44 3 4 cbr 1000 ------- 0 0.0 4.0 42 42
- 1.44 0 2 cbr 1000 ------- 0 0.0 4.0 55 55
+ 1.44 0 2 cbr 1000 ------- 0 0.0 4.0 110 110
r 1.444 2 3 cbr 1000 ------- 0 0.0 4.0 46 46
+ 1.444 3 4 cbr 1000 ------- 0 0.0 4.0 46 46
r 1.444 0 2 cbr 1000 ------- 0 0.0 4.0 52 52
+ 1.444 2 3 cbr 1000 ------- 0 0.0 4.0 52 52
- 1.444 3 4 cbr 1000 ------- 0 0.0 4.0 46 46
- 1.444 2 3 cbr 1000 ------- 0 0.0 4.0 52 52
+ 1.444 0 2 cbr 1000 ------- 0 0.0 4.0 111 111
d 1.444 0 2 cbr 1000 ------- 0 0.0 4.0 111 111
r 1.448 3 4 cbr 1000 ------- 0 0.0 4.0 43 43
- 1.448 0 2 cbr 1000 ------- 0 0.0 4.0 56 56
+ 1.448 0 2 cbr 1000 ------- 0 0.0 4.0 112 112
r 1.452 2 3 cbr 1000 ------- 0 0.0 4.0 47 47
+ 1.452 3 4 cbr 1000 ------- 0 0.0 4.0 47 47
r 1.452 0 2 cbr 1000 ------- 0 0.0 4.0 53 53
+ 1.452 2 3 cbr 1000 ------- 0 0.0 4.0 53 53
- 1.452 3 4 cbr 1000 ------- 0 0.0 4.0 47 47
- 1.452 2 3 cbr 1000 ------- 0 0.0 4.0 53 53
+ 1.452 0 2 cbr 1000 ------- 0 0.0 4.0 113 113
d 1.452 0 2 cbr 1000 ------- 0 0.0 4.0 113 113
r 1.456 3 4 cbr 1000 ------- 0 0.0 4.0 44 44
- 1.456 0 2 cbr 1000 ------- 0 0.0 4.0 57 57
+ 1.456 0 2 cbr 1000 ------- 0 0.0 4.0 114 114
r 1.46 2 3 cbr 1000 ------- 0 0.0 4.0 48 48
+ 1.46 3 4 cbr 1000 ------- 0 0.0 4.0 48 48
r 1.46 0 2 cbr 1000 ------- 0 0.0 4.0 54 54
+ 1.46 2 3 cbr 1000 ------- 0 0.0 4.0 54 54
- 1.46 3 4 cbr 1000 ------- 0 0.0 4.0 48 48
- 1.46 2 3 cbr 1000 ------- 0 0.0 4.0 54 54
+ 1.46 0 2 cbr 1000 ------- 0 0.0 4.0 115 115
d 1.46 0 2 cbr 1000 ------- 0 0.0 4.0 115 115
r 1.464 3 4 cbr 1000 ------- 0 0.0 4.0 45 45
- 1.464 0 2 cbr 1000 ------- 0 0.0 4.0 58 58
+ 1.464 0 2 cbr 1000 ------- 0 0.0 4.0 116 116
r 1.468 2 3 cbr 1000 ------- 0 0.0 4.0 49 49
+ 1.468 3 4 cbr 1000 ------- 0 0.0 4.0 49 49
r 1.468 0 2 cbr 1000 ------- 0 0.0 4.0 55 55
+ 1.468 2 3 cbr 1000 ------- 0 0.0 4.0 55 55
- 1.468 3 4 cbr 1000 ------- 0 0.0 4.0 49 49
- 1.468 2 3 cbr 1000 ------- 0 0.0 4.0 55 55
+ 1.468 0 2 cbr 1000 ------- 0 0.0 4.0 117 117
d 1.468 0 2 cbr 1000 ------- 0 0.0 4.0 117 117
r 1.472 3 4 cbr 1000 ------- 0 0.0 4.0 46 46
- 1.472 0 2 cbr 1000 ------- 0 0.0 4.0 59 59
+ 1.472 0 2 cbr 1000 ------- 0 0.0 4.0 118 118
r 1.476 2 3 cbr 1000 ------- 0 0.0 4.0 50 50
+ 1.476 3 4 cbr 1000 ------- 0 0.0 4.0 50 50
r 1.476 0 2 cbr 1000 ------- 0 0.0 4.0 56 56
+ 1.476 2 3 cbr 1000 ------- 0 0.0 4.0 56 56
- 1.476 3 4 cbr 1000 ------- 0 0.0 4.0 50 50
- 1.476 2 3 cbr 1000 ------- 0 0.0 4.0 56 56
+ 1.476 0 2 cbr 1000 ------- 0 0.0 4.0 119 119
d 1.476 0 2 cbr 1000 ------- 0 0.0 4.0 119 119
r 1.48 3 4 cbr 1000 ------- 0 0.0 4.0 47 47
- 1.48 0 2 cbr 1000 ------- 0 0.0 4.0 60 60
+ 1.48 0 2 cbr 1000 ------- 0 0.0 4.0 120 120
r 1.484 2 3 cbr 1000 ------- 0 0.0 4.0 51 51
+ 1.484 3 4 cbr 1000 ------- 0 0.0 4.0 51 51
r 1.484 0 2 cbr 1000 ------- 0 0.0 4.0 57 57
+ 1.484 2 3 cbr 1000 ------- 0 0.0 4.0 57 57
- 1.484 3 4 cbr 1000 ------- 0 0.0 4.0 51 51
- 1.484 2 3 cbr 1000 ------- 0 0.0 4.0 57 57
+ 1.484 0 2 cbr 1000 ------- 0 0.0 4.0 121 121
d 1.484 0 2 cbr 1000 ------- 0 0.0 4.0 121 121
r 1.488 3 4 cbr 1000 ------- 0 0.0 4.0 48 48
- 1.488 0 2 cbr 1000 ------- 0 0.0 4.0 61 61
+ 1.488 0 2 cbr 1000 ------- 0 0.0 4.0 122 122
r 1.492 2 3 cbr 1000 ------- 0 0.0 4.0 52 52
+ 1.492 3 4 cbr 1000 ------- 0 0.0 4.0 52 52
r 1.492 0 2 cbr 1000 ------- 0 0.0 4.0 58 58
+ 1.492 2 3 cbr 1000 ------- 0 0.0 4.0 58 58
- 1.492 3 4 cbr 1000 ------- 0 0.0 4.0 52 52
- 1.492 2 3 cbr 1000 ------- 0 0.0 4.0 58 58
+ 1.492 0 2 cbr 1000 ------- 0 0.0 4.0 123 123
d 1.492 0 2 cbr 1000 ------- 0 0.0 4.0 123 123
r 1.496 3 4 cbr 1000 ------- 0 0.0 4.0 49 49
- 1.496 0 2 cbr 1000 ------- 0 0.0 4.0 62 62
+ 1.496 0 2 cbr 1000 ------- 0 0.0 4.0 124 124
+ 1.5 1 2 tcp 40 ------- 0 1.0 5.0 0 125
- 1.5 1 2 tcp 40 ------- 0 1.0 5.0 0 125
r 1.5 2 3 cbr 1000 ------- 0 0.0 4.0 53 53
+ 1.5 3 4 cbr 1000 ------- 0 0.0 4.0 53 53
r 1.5 0 2 cbr 1000 ------- 0 0.0 4.0 59 59
+ 1.5 2 3 cbr 1000 ------- 0 0.0 4.0 59 59
- 1.5 3 4 cbr 1000 ------- 0 0.0 4.0 53 53
- 1.5 2 3 cbr 1000 ------- 0 0.0 4.0 59 59
+ 1.5 0 2 cbr 1000 ------- 0 0.0 4.0 125 126
d 1.5 0 2 cbr 1000 ------- 0 0.0 4.0 125 126
r 1.504 3 4 cbr 1000 ------- 0 0.0 4.0 50 50
- 1.504 0 2 cbr 1000 ------- 0 0.0 4.0 63 63
+ 1.504 0 2 cbr 1000 ------- 0 0.0 4.0 126 127
r 1.508 2 3 cbr 1000 ------- 0 0.0 4.0 54 54
+ 1.508 3 4 cbr 1000 ------- 0 0.0 4.0 54 54
r 1.508 0 2 cbr 1000 ------- 0 0.0 4.0 60 60
+ 1.508 2 3 cbr 1000 ------- 0 0.0 4.0 60 60
- 1.508 3 4 cbr 1000 ------- 0 0.0 4.0 54 54
- 1.508 2 3 cbr 1000 ------- 0 0.0 4.0 60 60
+ 1.508 0 2 cbr 1000 ------- 0 0.0 4.0 127 128
d 1.508 0 2 cbr 1000 ------- 0 0.0 4.0 127 128
r 1.512 3 4 cbr 1000 ------- 0 0.0 4.0 51 51
- 1.512 0 2 cbr 1000 ------- 0 0.0 4.0 64 64
+ 1.512 0 2 cbr 1000 ------- 0 0.0 4.0 128 129
r 1.516 2 3 cbr 1000 ------- 0 0.0 4.0 55 55
+ 1.516 3 4 cbr 1000 ------- 0 0.0 4.0 55 55
r 1.516 0 2 cbr 1000 ------- 0 0.0 4.0 61 61
+ 1.516 2 3 cbr 1000 ------- 0 0.0 4.0 61 61
- 1.516 3 4 cbr 1000 ------- 0 0.0 4.0 55 55
- 1.516 2 3 cbr 1000 ------- 0 0.0 4.0 61 61
+ 1.516 0 2 cbr 1000 ------- 0 0.0 4.0 129 130
d 1.516 0 2 cbr 1000 ------- 0 0.0 4.0 129 130
r 1.52 3 4 cbr 1000 ------- 0 0.0 4.0 52 52
- 1.52 0 2 cbr 1000 ------- 0 0.0 4.0 65 65
+ 1.52 0 2 cbr 1000 ------- 0 0.0 4.0 130 131
r 1.52032 1 2 tcp 40 ------- 0 1.0 5.0 0 125
+ 1.52032 2 3 tcp 40 ------- 0 1.0 5.0 0 125
r 1.524 2 3 cbr 1000 ------- 0 0.0 4.0 56 56
+ 1.524 3 4 cbr 1000 ------- 0 0.0 4.0 56 56
r 1.524 0 2 cbr 1000 ------- 0 0.0 4.0 62 62
+ 1.524 2 3 cbr 1000 ------- 0 0.0 4.0 62 62
- 1.524 3 4 cbr 1000 ------- 0 0.0 4.0 56 56
- 1.524 2 3 tcp 40 ------- 0 1.0 5.0 0 125
+ 1.524 0 2 cbr 1000 ------- 0 0.0 4.0 131 132
d 1.524 0 2 cbr 1000 ------- 0 0.0 4.0 131 132
- 1.52432 2 3 cbr 1000 ------- 0 0.0 4.0 62 62
r 1.528 3 4 cbr 1000 ------- 0 0.0 4.0 53 53
- 1.528 0 2 cbr 1000 ------- 0 0.0 4.0 66 66
+ 1.528 0 2 cbr 1000 ------- 0 0.0 4.0 132 133
r 1.532 2 3 cbr 1000 ------- 0 0.0 4.0 57 57
+ 1.532 3 4 cbr 1000 ------- 0 0.0 4.0 57 57
r 1.532 0 2 cbr 1000 ------- 0 0.0 4.0 63 63
+ 1.532 2 3 cbr 1000 ------- 0 0.0 4.0 63 63
- 1.532 3 4 cbr 1000 ------- 0 0.0 4.0 57 57
+ 1.532 0 2 cbr 1000 ------- 0 0.0 4.0 133 134
d 1.532 0 2 cbr 1000 ------- 0 0.0 4.0 133 134
- 1.53232 2 3 cbr 1000 ------- 0 0.0 4.0 63 63
r 1.536 3 4 cbr 1000 ------- 0 0.0 4.0 54 54
- 1.536 0 2 cbr 1000 ------- 0 0.0 4.0 67 67
+ 1.536 0 2 cbr 1000 ------- 0 0.0 4.0 134 135
r 1.54 2 3 cbr 1000 ------- 0 0.0 4.0 58 58
+ 1.54 3 4 cbr 1000 ------- 0 0.0 4.0 58 58
r 1.54 0 2 cbr 1000 ------- 0 0.0 4.0 64 64
+ 1.54 2 3 cbr 1000 ------- 0 0.0 4.0 64 64
- 1.54 3 4 cbr 1000 ------- 0 0.0 4.0 58 58
+ 1.54 0 2 cbr 1000 ------- 0 0.0 4.0 135 136
d 1.54 0 2 cbr 1000 ------- 0 0.0 4.0 135 136
- 1.54032 2 3 cbr 1000 ------- 0 0.0 4.0 64 64
r 1.544 3 4 cbr 1000 ------- 0 0.0 4.0 55 55
- 1.544 0 2 cbr 1000 ------- 0 0.0 4.0 68 68
+ 1.544 0 2 cbr 1000 ------- 0 0.0 4.0 136 137
r 1.548 2 3 cbr 1000 ------- 0 0.0 4.0 59 59
+ 1.548 3 4 cbr 1000 ------- 0 0.0 4.0 59 59
r 1.548 0 2 cbr 1000 ------- 0 0.0 4.0 65 65
+ 1.548 2 3 cbr 1000 ------- 0 0.0 4.0 65 65
- 1.548 3 4 cbr 1000 ------- 0 0.0 4.0 59 59
+ 1.548 0 2 cbr 1000 ------- 0 0.0 4.0 137 138
d 1.548 0 2 cbr 1000 ------- 0 0.0 4.0 137 138
- 1.54832 2 3 cbr 1000 ------- 0 0.0 4.0 65 65
r 1.552 3 4 cbr 1000 ------- 0 0.0 4.0 56 56
- 1.552 0 2 cbr 1000 ------- 0 0.0 4.0 69 69
+ 1.552 0 2 cbr 1000 ------- 0 0.0 4.0 138 139
r 1.556 2 3 cbr 1000 ------- 0 0.0 4.0 60 60
+ 1.556 3 4 cbr 1000 ------- 0 0.0 4.0 60 60