+ 1 0 2 tcp 40 ------- 0 0.0 3.0 0 0
- 1 0 2 tcp 40 ------- 0 0.0 3.0 0 0
r 1.050625 0 2 tcp 40 ------- 0 0.0 3.0 0 0
+ 1.050625 2 3 tcp 40 ------- 0 0.0 3.0 0 0
- 1.050625 2 3 tcp 40 ------- 0 0.0 3.0 0 0
r 1.10125 2 3 tcp 40 ------- 0 0.0 3.0 0 0
+ 1.10125 3 2 ack 40 ------- 0 3.0 0.0 0 1
- 1.10125 3 2 ack 40 ------- 0 3.0 0.0 0 1
r 1.151875 3 2 ack 40 ------- 0 3.0 0.0 0 1
+ 1.151875 2 0 ack 40 ------- 0 3.0 0.0 0 1
- 1.151875 2 0 ack 40 ------- 0 3.0 0.0 0 1
r 1.2025 2 0 ack 40 ------- 0 3.0 0.0 0 1
+ 1.2025 0 2 tcp 1040 ------- 0 0.0 3.0 1 2
- 1.2025 0 2 tcp 1040 ------- 0 0.0 3.0 1 2
+ 1.2025 0 2 tcp 1040 ------- 0 0.0 3.0 2 3
- 1.21875 0 2 tcp 1040 ------- 0 0.0 3.0 2 3
r 1.26875 0 2 tcp 1040 ------- 0 0.0 3.0 1 2
+ 1.26875 2 3 tcp 1040 ------- 0 0.0 3.0 1 2
- 1.26875 2 3 tcp 1040 ------- 0 0.0 3.0 1 2
r 1.285 0 2 tcp 1040 ------- 0 0.0 3.0 2 3
+ 1.285 2 3 tcp 1040 ------- 0 0.0 3.0 2 3
- 1.285 2 3 tcp 1040 ------- 0 0.0 3.0 2 3
r 1.335 2 3 tcp 1040 ------- 0 0.0 3.0 1 2
+ 1.335 3 2 ack 40 ------- 0 3.0 0.0 1 4
- 1.335 3 2 ack 40 ------- 0 3.0 0.0 1 4
r 1.35125 2 3 tcp 1040 ------- 0 0.0 3.0 2 3
+ 1.35125 3 2 ack 40 ------- 0 3.0 0.0 2 5
- 1.35125 3 2 ack 40 ------- 0 3.0 0.0 2 5
r 1.385625 3 2 ack 40 ------- 0 3.0 0.0 1 4
+ 1.385625 2 0 ack 40 ------- 0 3.0 0.0 1 4
- 1.385625 2 0 ack 40 ------- 0 3.0 0.0 1 4
r 1.401875 3 2 ack 40 ------- 0 3.0 0.0 2 5
+ 1.401875 2 0 ack 40 ------- 0 3.0 0.0 2 5
- 1.401875 2 0 ack 40 ------- 0 3.0 0.0 2 5
r 1.43625 2 0 ack 40 ------- 0 3.0 0.0 1 4
+ 1.43625 0 2 tcp 1040 ------- 0 0.0 3.0 3 6
- 1.43625 0 2 tcp 1040 ------- 0 0.0 3.0 3 6
+ 1.43625 0 2 tcp 1040 ------- 0 0.0 3.0 4 7
r 1.4525 2 0 ack 40 ------- 0 3.0 0.0 2 5
+ 1.4525 0 2 tcp 1040 ------- 0 0.0 3.0 5 8
+ 1.4525 0 2 tcp 1040 ------- 0 0.0 3.0 6 9
- 1.4525 0 2 tcp 1040 ------- 0 0.0 3.0 4 7
- 1.46875 0 2 tcp 1040 ------- 0 0.0 3.0 5 8
- 1.485 0 2 tcp 1040 ------- 0 0.0 3.0 6 9
r 1.5025 0 2 tcp 1040 ------- 0 0.0 3.0 3 6
+ 1.5025 2 3 tcp 1040 ------- 0 0.0 3.0 3 6
- 1.5025 2 3 tcp 1040 ------- 0 0.0 3.0 3 6
r 1.51875 0 2 tcp 1040 ------- 0 0.0 3.0 4 7
+ 1.51875 2 3 tcp 1040 ------- 0 0.0 3.0 4 7
- 1.51875 2 3 tcp 1040 ------- 0 0.0 3.0 4 7
r 1.535 0 2 tcp 1040 ------- 0 0.0 3.0 5 8
+ 1.535 2 3 tcp 1040 ------- 0 0.0 3.0 5 8
- 1.535 2 3 tcp 1040 ------- 0 0.0 3.0 5 8
r 1.55125 0 2 tcp 1040 ------- 0 0.0 3.0 6 9
+ 1.55125 2 3 tcp 1040 ------- 0 0.0 3.0 6 9
- 1.55125 2 3 tcp 1040 ------- 0 0.0 3.0 6 9
r 1.56875 2 3 tcp 1040 ------- 0 0.0 3.0 3 6
+ 1.56875 3 2 ack 40 ------- 0 3.0 0.0 3 10
- 1.56875 3 2 ack 40 ------- 0 3.0 0.0 3 10
r 1.585 2 3 tcp 1040 ------- 0 0.0 3.0 4 7
+ 1.585 3 2 ack 40 ------- 0 3.0 0.0 4 11
- 1.585 3 2 ack 40 ------- 0 3.0 0.0 4 11
r 1.60125 2 3 tcp 1040 ------- 0 0.0 3.0 5 8
+ 1.60125 3 2 ack 40 ------- 0 3.0 0.0 5 12
- 1.60125 3 2 ack 40 ------- 0 3.0 0.0 5 12
r 1.6175 2 3 tcp 1040 ------- 0 0.0 3.0 6 9
+ 1.6175 3 2 ack 40 ------- 0 3.0 0.0 6 13
- 1.6175 3 2 ack 40 ------- 0 3.0 0.0 6 13
r 1.619375 3 2 ack 40 ------- 0 3.0 0.0 3 10
+ 1.619375 2 0 ack 40 ------- 0 3.0 0.0 3 10
- 1.619375 2 0 ack 40 ------- 0 3.0 0.0 3 10
r 1.635625 3 2 ack 40 ------- 0 3.0 0.0 4 11
+ 1.635625 2 0 ack 40 ------- 0 3.0 0.0 4 11
- 1.635625 2 0 ack 40 ------- 0 3.0 0.0 4 11
r 1.651875 3 2 ack 40 ------- 0 3.0 0.0 5 12
+ 1.651875 2 0 ack 40 ------- 0 3.0 0.0 5 12
- 1.651875 2 0 ack 40 ------- 0 3.0 0.0 5 12
r 1.668125 3 2 ack 40 ------- 0 3.0 0.0 6 13
+ 1.668125 2 0 ack 40 ------- 0 3.0 0.0 6 13
- 1.668125 2 0 ack 40 ------- 0 3.0 0.0 6 13
r 1.67 2 0 ack 40 ------- 0 3.0 0.0 3 10
+ 1.67 0 2 tcp 1040 ------- 0 0.0 3.0 7 14
- 1.67 0 2 tcp 1040 ------- 0 0.0 3.0 7 14
+ 1.67 0 2 tcp 1040 ------- 0 0.0 3.0 8 15
r 1.68625 2 0 ack 40 ------- 0 3.0 0.0 4 11
+ 1.68625 0 2 tcp 1040 ------- 0 0.0 3.0 9 16
+ 1.68625 0 2 tcp 1040 ------- 0 0.0 3.0 10 17
- 1.68625 0 2 tcp 1040 ------- 0 0.0 3.0 8 15
r 1.7025 2 0 ack 40 ------- 0 3.0 0.0 5 12
+ 1.7025 0 2 tcp 1040 ------- 0 0.0 3.0 11 18
+ 1.7025 0 2 tcp 1040 ------- 0 0.0 3.0 12 19
- 1.7025 0 2 tcp 1040 ------- 0 0.0 3.0 9 16
r 1.71875 2 0 ack 40 ------- 0 3.0 0.0 6 13
+ 1.71875 0 2 tcp 1040 ------- 0 0.0 3.0 13 20
+ 1.71875 0 2 tcp 1040 ------- 0 0.0 3.0 14 21
- 1.71875 0 2 tcp 1040 ------- 0 0.0 3.0 10 17
- 1.735 0 2 tcp 1040 ------- 0 0.0 3.0 11 18
r 1.73625 0 2 tcp 1040 ------- 0 0.0 3.0 7 14
+ 1.73625 2 3 tcp 1040 ------- 0 0.0 3.0 7 14
- 1.73625 2 3 tcp 1040 ------- 0 0.0 3.0 7 14
- 1.75125 0 2 tcp 1040 ------- 0 0.0 3.0 12 19
r 1.7525 0 2 tcp 1040 ------- 0 0.0 3.0 8 15
+ 1.7525 2 3 tcp 1040 ------- 0 0.0 3.0 8 15
- 1.7525 2 3 tcp 1040 ------- 0 0.0 3.0 8 15
- 1.7675 0 2 tcp 1040 ------- 0 0.0 3.0 13 20
r 1.76875 0 2 tcp 1040 ------- 0 0.0 3.0 9 16
+ 1.76875 2 3 tcp 1040 ------- 0 0.0 3.0 9 16
- 1.76875 2 3 tcp 1040 ------- 0 0.0 3.0 9 16
- 1.78375 0 2 tcp 1040 ------- 0 0.0 3.0 14 21
r 1.785 0 2 tcp 1040 ------- 0 0.0 3.0 10 17
+ 1.785 2 3 tcp 1040 ------- 0 0.0 3.0 10 17
- 1.785 2 3 tcp 1040 ------- 0 0.0 3.0 10 17
r 1.80125 0 2 tcp 1040 ------- 0 0.0 3.0 11 18
+ 1.80125 2 3 tcp 1040 ------- 0 0.0 3.0 11 18
- 1.80125 2 3 tcp 1040 ------- 0 0.0 3.0 11 18
r 1.8025 2 3 tcp 1040 ------- 0 0.0 3.0 7 14
+ 1.8025 3 2 ack 40 ------- 0 3.0 0.0 7 22
- 1.8025 3 2 ack 40 ------- 0 3.0 0.0 7 22
r 1.8175 0 2 tcp 1040 ------- 0 0.0 3.0 12 19
+ 1.8175 2 3 tcp 1040 ------- 0 0.0 3.0 12 19
- 1.8175 2 3 tcp 1040 ------- 0 0.0 3.0 12 19
r 1.81875 2 3 tcp 1040 ------- 0 0.0 3.0 8 15
+ 1.81875 3 2 ack 40 ------- 0 3.0 0.0 8 23
- 1.81875 3 2 ack 40 ------- 0 3.0 0.0 8 23
r 1.83375 0 2 tcp 1040 ------- 0 0.0 3.0 13 20
+ 1.83375 2 3 tcp 1040 ------- 0 0.0 3.0 13 20
- 1.83375 2 3 tcp 1040 ------- 0 0.0 3.0 13 20
r 1.835 2 3 tcp 1040 ------- 0 0.0 3.0 9 16
+ 1.835 3 2 ack 40 ------- 0 3.0 0.0 9 24
- 1.835 3 2 ack 40 ------- 0 3.0 0.0 9 24
r 1.85 0 2 tcp 1040 ------- 0 0.0 3.0 14 21
+ 1.85 2 3 tcp 1040 ------- 0 0.0 3.0 14 21
- 1.85 2 3 tcp 1040 ------- 0 0.0 3.0 14 21
r 1.85125 2 3 tcp 1040 ------- 0 0.0 3.0 10 17
+ 1.85125 3 2 ack 40 ------- 0 3.0 0.0 10 25
- 1.85125 3 2 ack 40 ------- 0 3.0 0.0 10 25
r 1.853125 3 2 ack 40 ------- 0 3.0 0.0 7 22
+ 1.853125 2 0 ack 40 ------- 0 3.0 0.0 7 22
- 1.853125 2 0 ack 40 ------- 0 3.0 0.0 7 22
r 1.8675 2 3 tcp 1040 ------- 0 0.0 3.0 11 18
+ 1.8675 3 2 ack 40 ------- 0 3.0 0.0 11 26
- 1.8675 3 2 ack 40 ------- 0 3.0 0.0 11 26
r 1.869375 3 2 ack 40 ------- 0 3.0 0.0 8 23
+ 1.869375 2 0 ack 40 ------- 0 3.0 0.0 8 23
- 1.869375 2 0 ack 40 ------- 0 3.0 0.0 8 23
r 1.88375 2 3 tcp 1040 ------- 0 0.0 3.0 12 19
+ 1.88375 3 2 ack 40 ------- 0 3.0 0.0 12 27
- 1.88375 3 2 ack 40 ------- 0 3.0 0.0 12 27
r 1.885625 3 2 ack 40 ------- 0 3.0 0.0 9 24
+ 1.885625 2 0 ack 40 ------- 0 3.0 0.0 9 24
- 1.885625 2 0 ack 40 ------- 0 3.0 0.0 9 24
r 1.9 2 3 tcp 1040 ------- 0 0.0 3.0 13 20
+ 1.9 3 2 ack 40 ------- 0 3.0 0.0 13 28
- 1.9 3 2 ack 40 ------- 0 3.0 0.0 13 28
r 1.901875 3 2 ack 40 ------- 0 3.0 0.0 10 25
+ 1.901875 2 0 ack 40 ------- 0 3.0 0.0 10 25
- 1.901875 2 0 ack 40 ------- 0 3.0 0.0 10 25
r 1.90375 2 0 ack 40 ------- 0 3.0 0.0 7 22
+ 1.90375 0 2 tcp 1040 ------- 0 0.0 3.0 15 29
- 1.90375 0 2 tcp 1040 ------- 0 0.0 3.0 15 29
+ 1.90375 0 2 tcp 1040 ------- 0 0.0 3.0 16 30
r 1.91625 2 3 tcp 1040 ------- 0 0.0 3.0 14 21
+ 1.91625 3 2 ack 40 ------- 0 3.0 0.0 14 31
- 1.91625 3 2 ack 40 ------- 0 3.0 0.0 14 31
r 1.918125 3 2 ack 40 ------- 0 3.0 0.0 11 26
+ 1.918125 2 0 ack 40 ------- 0 3.0 0.0 11 26
- 1.918125 2 0 ack 40 ------- 0 3.0 0.0 11 26
r 1.92 2 0 ack 40 ------- 0 3.0 0.0 8 23
+ 1.92 0 2 tcp 1040 ------- 0 0.0 3.0 17 32
+ 1.92 0 2 tcp 1040 ------- 0 0.0 3.0 18 33
- 1.92 0 2 tcp 1040 ------- 0 0.0 3.0 16 30
r 1.934375 3 2 ack 40 ------- 0 3.0 0.0 12 27
+ 1.934375 2 0 ack 40 ------- 0 3.0 0.0 12 27
- 1.934375 2 0 ack 40 ------- 0 3.0 0.0 12 27
r 1.93625 2 0 ack 40 ------- 0 3.0 0.0 9 24
+ 1.93625 0 2 tcp 1040 ------- 0 0.0 3.0 19 34
+ 1.93625 0 2 tcp 1040 ------- 0 0.0 3.0 20 35
- 1.93625 0 2 tcp 1040 ------- 0 0.0 3.0 17 32
r 1.950625 3 2 ack 40 ------- 0 3.0 0.0 13 28
+ 1.950625 2 0 ack 40 ------- 0 3.0 0.0 13 28
- 1.950625 2 0 ack 40 ------- 0 3.0 0.0 13 28
r 1.9525 2 0 ack 40 ------- 0 3.0 0.0 10 25
+ 1.9525 0 2 tcp 1040 ------- 0 0.0 3.0 21 36
+ 1.9525 0 2 tcp 1040 ------- 0 0.0 3.0 22 37
- 1.9525 0 2 tcp 1040 ------- 0 0.0 3.0 18 33
r 1.966875 3 2 ack 40 ------- 0 3.0 0.0 14 31
+ 1.966875 2 0 ack 40 ------- 0 3.0 0.0 14 31
- 1.966875 2 0 ack 40 ------- 0 3.0 0.0 14 31
r 1.96875 2 0 ack 40 ------- 0 3.0 0.0 11 26
+ 1.96875 0 2 tcp 1040 ------- 0 0.0 3.0 23 38
+ 1.96875 0 2 tcp 1040 ------- 0 0.0 3.0 24 39
- 1.96875 0 2 tcp 1040 ------- 0 0.0 3.0 19 34
r 1.97 0 2 tcp 1040 ------- 0 0.0 3.0 15 29
+ 1.97 2 3 tcp 1040 ------- 0 0.0 3.0 15 29
- 1.97 2 3 tcp 1040 ------- 0 0.0 3.0 15 29
r 1.985 2 0 ack 40 ------- 0 3.0 0.0 12 27
+ 1.985 0 2 tcp 1040 ------- 0 0.0 3.0 25 40
+ 1.985 0 2 tcp 1040 ------- 0 0.0 3.0 26 41
- 1.985 0 2 tcp 1040 ------- 0 0.0 3.0 20 35
r 1.98625 0 2 tcp 1040 ------- 0 0.0 3.0 16 30
+ 1.98625 2 3 tcp 1040 ------- 0 0.0 3.0 16 30
- 1.98625 2 3 tcp 1040 ------- 0 0.0 3.0 16 30
+ 2 1 2 tcp 40 ------- 0 1.0 4.0 0 42
- 2 1 2 tcp 40 ------- 0 1.0 4.0 0 42
r 2.00125 2 0 ack 40 ------- 0 3.0 0.0 13 28
+ 2.00125 0 2 tcp 1040 ------- 0 0.0 3.0 27 43
+ 2.00125 0 2 tcp 1040 ------- 0 0.0 3.0 28 44
- 2.00125 0 2 tcp 1040 ------- 0 0.0 3.0 21 36
r 2.0025 0 2 tcp 1040 ------- 0 0.0 3.0 17 32
+ 2.0025 2 3 tcp 1040 ------- 0 0.0 3.0 17 32
- 2.0025 2 3 tcp 1040 ------- 0 0.0 3.0 17 32
- 2.0175 0 2 tcp 1040 ------- 0 0.0 3.0 22 37
r 2.0175 2 0 ack 40 ------- 0 3.0 0.0 14 31
+ 2.0175 0 2 tcp 1040 ------- 0 0.0 3.0 29 45
+ 2.0175 0 2 tcp 1040 ------- 0 0.0 3.0 30 46
r 2.01875 0 2 tcp 1040 ------- 0 0.0 3.0 18 33
+ 2.01875 2 3 tcp 1040 ------- 0 0.0 3.0 18 33
- 2.01875 2 3 tcp 1040 ------- 0 0.0 3.0 18 33
- 2.03375 0 2 tcp 1040 ------- 0 0.0 3.0 23 38
r 2.035 0 2 tcp 1040 ------- 0 0.0 3.0 19 34
+ 2.035 2 3 tcp 1040 ------- 0 0.0 3.0 19 34
- 2.035 2 3 tcp 1040 ------- 0 0.0 3.0 19 34
r 2.03625 2 3 tcp 1040 ------- 0 0.0 3.0 15 29
+ 2.03625 3 2 ack 40 ------- 0 3.0 0.0 15 47
- 2.03625 3 2 ack 40 ------- 0 3.0 0.0 15 47
- 2.05 0 2 tcp 1040 ------- 0 0.0 3.0 24 39
r 2.050625 1 2 tcp 40 ------- 0 1.0 4.0 0 42
+ 2.050625 2 4 tcp 40 ------- 0 1.0 4.0 0 42
- 2.050625 2 4 tcp 40 ------- 0 1.0 4.0 0 42
r 2.05125 0 2 tcp 1040 ------- 0 0.0 3.0 20 35
+ 2.05125 2 3 tcp 1040 ------- 0 0.0 3.0 20 35
- 2.05125 2 3 tcp 1040 ------- 0 0.0 3.0 20 35
r 2.0525 2 3 tcp 1040 ------- 0 0.0 3.0 16 30
+ 2.0525 3 2 ack 40 ------- 0 3.0 0.0 16 48
- 2.0525 3 2 ack 40 ------- 0 3.0 0.0 16 48
- 2.06625 0 2 tcp 1040 ------- 0 0.0 3.0 25 40
r 2.0675 0 2 tcp 1040 ------- 0 0.0 3.0 21 36
+ 2.0675 2 3 tcp 1040 ------- 0 0.0 3.0 21 36
- 2.0675 2 3 tcp 1040 ------- 0 0.0 3.0 21 36
r 2.06875 2 3 tcp 1040 ------- 0 0.0 3.0 17 32
+ 2.06875 3 2 ack 40 ------- 0 3.0 0.0 17 49
- 2.06875 3 2 ack 40 ------- 0 3.0 0.0 17 49
- 2.0825 0 2 tcp 1040 ------- 0 0.0 3.0 26 41
r 2.08375 0 2 tcp 1040 ------- 0 0.0 3.0 22 37
+ 2.08375 2 3 tcp 1040 ------- 0 0.0 3.0 22 37
- 2.08375 2 3 tcp 1040 ------- 0 0.0 3.0 22 37
r 2.085 2 3 tcp 1040 ------- 0 0.0 3.0 18 33
+ 2.085 3 2 ack 40 ------- 0 3.0 0.0 18 50
- 2.085 3 2 ack 40 ------- 0 3.0 0.0 18 50
r 2.086875 3 2 ack 40 ------- 0 3.0 0.0 15 47
+ 2.086875 2 0 ack 40 ------- 0 3.0 0.0 15 47
- 2.086875 2 0 ack 40 ------- 0 3.0 0.0 15 47
- 2.09875 0 2 tcp 1040 ------- 0 0.0 3.0 27 43
r 2.1 0 2 tcp 1040 ------- 0 0.0 3.0 23 38
+ 2.1 2 3 tcp 1040 ------- 0 0.0 3.0 23 38
- 2.1 2 3 tcp 1040 ------- 0 0.0 3.0 23 38
r 2.10125 2 3 tcp 1040 ------- 0 0.0 3.0 19 34
+ 2.10125 3 2 ack 40 ------- 0 3.0 0.0 19 51
- 2.10125 3 2 ack 40 ------- 0 3.0 0.0 19 51
r 2.10125 2 4 tcp 40 ------- 0 1.0 4.0 0 42
+ 2.10125 4 2 ack 40 ------- 0 4.0 1.0 0 52
- 2.10125 4 2 ack 40 ------- 0 4.0 1.0 0 52
r 2.103125 3 2 ack 40 ------- 0 3.0 0.0 16 48
+ 2.103125 2 0 ack 40 ------- 0 3.0 0.0 16 48
- 2.103125 2 0 ack 40 ------- 0 3.0 0.0 16 48
- 2.115 0 2 tcp 1040 ------- 0 0.0 3.0 28 44
r 2.11625 0 2 tcp 1040 ------- 0 0.0 3.0 24 39
+ 2.11625 2 3 tcp 1040 ------- 0 0.0 3.0 24 39
- 2.11625 2 3 tcp 1040 ------- 0 0.0 3.0 24 39
r 2.1175 2 3 tcp 1040 ------- 0 0.0 3.0 20 35
+ 2.1175 3 2 ack 40 ------- 0 3.0 0.0 20 53
- 2.1175 3 2 ack 40 ------- 0 3.0 0.0 20 53
r 2.119375 3 2 ack 40 ------- 0 3.0 0.0 17 49
+ 2.119375 2 0 ack 40 ------- 0 3.0 0.0 17 49
- 2.119375 2 0 ack 40 ------- 0 3.0 0.0 17 49
- 2.13125 0 2 tcp 1040 ------- 0 0.0 3.0 29 45
r 2.1325 0 2 tcp 1040 ------- 0 0.0 3.0 25 40
+ 2.1325 2 3 tcp 1040 ------- 0 0.0 3.0 25 40
- 2.1325 2 3 tcp 1040 ------- 0 0.0 3.0 25 40
r 2.13375 2 3 tcp 1040 ------- 0 0.0 3.0 21 36
+ 2.13375 3 2 ack 40 ------- 0 3.0 0.0 21 54
- 2.13375 3 2 ack 40 ------- 0 3.0 0.0 21 54
r 2.135625 3 2 ack 40 ------- 0 3.0 0.0 18 50
+ 2.135625 2 0 ack 40 ------- 0 3.0 0.0 18 50
- 2.135625 2 0 ack 40 ------- 0 3.0 0.0 18 50
r 2.1375 2 0 ack 40 ------- 0 3.0 0.0 15 47
+ 2.1375 0 2 tcp 1040 ------- 0 0.0 3.0 31 55
+ 2.1375 0 2 tcp 1040 ------- 0 0.0 3.0 32 56
- 2.1475 0 2 tcp 1040 ------- 0 0.0 3.0 30 46
r 2.14875 0 2 tcp 1040 ------- 0 0.0 3.0 26 41
+ 2.14875 2 3 tcp 1040 ------- 0 0.0 3.0 26 41
- 2.14875 2 3 tcp 1040 ------- 0 0.0 3.0 26 41
r 2.15 2 3 tcp 1040 ------- 0 0.0 3.0 22 37
+ 2.15 3 2 ack 40 ------- 0 3.0 0.0 22 57
- 2.15 3 2 ack 40 ------- 0 3.0 0.0 22 57
r 2.151875 3 2 ack 40 ------- 0 3.0 0.0 19 51
+ 2.151875 2 0 ack 40 ------- 0 3.0 0.0 19 51
- 2.151875 2 0 ack 40 ------- 0 3.0 0.0 19 51
r 2.151875 4 2 ack 40 ------- 0 4.0 1.0 0 52
+ 2.151875 2 1 ack 40 ------- 0 4.0 1.0 0 52
- 2.151875 2 1 ack 40 ------- 0 4.0 1.0 0 52
r 2.15375 2 0 ack 40 ------- 0 3.0 0.0 16 48
+ 2.15375 0 2 tcp 1040 ------- 0 0.0 3.0 33 58
+ 2.15375 0 2 tcp 1040 ------- 0 0.0 3.0 34 59
- 2.16375 0 2 tcp 1040 ------- 0 0.0 3.0 31 55
r 2.165 0 2 tcp 1040 ------- 0 0.0 3.0 27 43
+ 2.165 2 3 tcp 1040 ------- 0 0.0 3.0 27 43
- 2.165 2 3 tcp 1040 ------- 0 0.0 3.0 27 43
r 2.16625 2 3 tcp 1040 ------- 0 0.0 3.0 23 38
+ 2.16625 3 2 ack 40 ------- 0 3.0 0.0 23 60
- 2.16625 3 2 ack 40 ------- 0 3.0 0.0 23 60
r 2.168125 3 2 ack 40 ------- 0 3.0 0.0 20 53
+ 2.168125 2 0 ack 40 ------- 0 3.0 0.0 20 53
- 2.168125 2 0 ack 40 ------- 0 3.0 0.0 20 53
r 2.17 2 0 ack 40 ------- 0 3.0 0.0 17 49
+ 2.17 0 2 tcp 1040 ------- 0 0.0 3.0 35 61
+ 2.17 0 2 tcp 1040 ------- 0 0.0 3.0 36 62
- 2.18 0 2 tcp 1040 ------- 0 0.0 3.0 32 56
r 2.18125 0 2 tcp 1040 ------- 0 0.0 3.0 28 44
+ 2.18125 2 3 tcp 1040 ------- 0 0.0 3.0 28 44
- 2.18125 2 3 tcp 1040 ------- 0 0.0 3.0 28 44
r 2.1825 2 3 tcp 1040 ------- 0 0.0 3.0 24 39
+ 2.1825 3 2 ack 40 ------- 0 3.0 0.0 24 63
- 2.1825 3 2 ack 40 ------- 0 3.0 0.0 24 63
r 2.184375 3 2 ack 40 ------- 0 3.0 0.0 21 54
+ 2.184375 2 0 ack 40 ------- 0 3.0 0.0 21 54
- 2.184375 2 0 ack 40 ------- 0 3.0 0.0 21 54
r 2.18625 2 0 ack 40 ------- 0 3.0 0.0 18 50
+ 2.18625 0 2 tcp 1040 ------- 0 0.0 3.0 37 64
+ 2.18625 0 2 tcp 1040 ------- 0 0.0 3.0 38 65
- 2.19625 0 2 tcp 1040 ------- 0 0.0 3.0 33 58
r 2.1975 0 2 tcp 1040 ------- 0 0.0 3.0 29 45
+ 2.1975 2 3 tcp 1040 ------- 0 0.0 3.0 29 45
- 2.1975 2 3 tcp 1040 ------- 0 0.0 3.0 29 45
r 2.19875 2 3 tcp 1040 ------- 0 0.0 3.0 25 40
+ 2.19875 3 2 ack 40 ------- 0 3.0 0.0 25 66
- 2.19875 3 2 ack 40 ------- 0 3.0 0.0 25 66
r 2.200625 3 2 ack 40 ------- 0 3.0 0.0 22 57
+ 2.200625 2 0 ack 40 ------- 0 3.0 0.0 22 57
- 2.200625 2 0 ack 40 ------- 0 3.0 0.0 22 57
r 2.2025 2 0 ack 40 ------- 0 3.0 0.0 19 51
+ 2.2025 0 2 tcp 1040 ------- 0 0.0 3.0 39 67
r 2.2025 2 1 ack 40 ------- 0 4.0 1.0 0 52
+ 2.2025 1 2 tcp 1040 ------- 0 1.0 4.0 1 68
- 2.2025 1 2 tcp 1040 ------- 0 1.0 4.0 1 68
+ 2.2025 1 2 tcp 1040 ------- 0 1.0 4.0 2 69
- 2.2125 0 2 tcp 1040 ------- 0 0.0 3.0 34 59
r 2.21375 0 2 tcp 1040 ------- 0 0.0 3.0 30 46
+ 2.21375 2 3 tcp 1040 ------- 0 0.0 3.0 30 46
- 2.21375 2 3 tcp 1040 ------- 0 0.0 3.0 30 46
r 2.215 2 3 tcp 1040 ------- 0 0.0 3.0 26 41
+ 2.215 3 2 ack 40 ------- 0 3.0 0.0 26 70
- 2.215 3 2 ack 40 ------- 0 3.0 0.0 26 70
r 2.216875 3 2 ack 40 ------- 0 3.0 0.0 23 60
+ 2.216875 2 0 ack 40 ------- 0 3.0 0.0 23 60
- 2.216875 2 0 ack 40 ------- 0 3.0 0.0 23 60
r 2.21875 2 0 ack 40 ------- 0 3.0 0.0 20 53
+ 2.21875 0 2 tcp 1040 ------- 0 0.0 3.0 40 71
- 2.21875 1 2 tcp 1040 ------- 0 1.0 4.0 2 69
- 2.22875 0 2 tcp 1040 ------- 0 0.0 3.0 35 61
r 2.23 0 2 tcp 1040 ------- 0 0.0 3.0 31 55
+ 2.23 2 3 tcp 1040 ------- 0 0.0 3.0 31 55
- 2.23 2 3 tcp 1040 ------- 0 0.0 3.0 31 55
r 2.23125 2 3 tcp 1040 ------- 0 0.0 3.0 27 43
+ 2.23125 3 2 ack 40 ------- 0 3.0 0.0 27 72
- 2.23125 3 2 ack 40 ------- 0 3.0 0.0 27 72
r 2.233125 3 2 ack 40 ------- 0 3.0 0.0 24 63
+ 2.233125 2 0 ack 40 ------- 0 3.0 0.0 24 63
- 2.233125 2 0 ack 40 ------- 0 3.0 0.0 24 63
r 2.235 2 0 ack 40 ------- 0 3.0 0.0 21 54
+ 2.235 0 2 tcp 1040 ------- 0 0.0 3.0 41 73
- 2.245 0 2 tcp 1040 ------- 0 0.0 3.0 36 62
r 2.24625 0 2 tcp 1040 ------- 0 0.0 3.0 32 56
+ 2.24625 2 3 tcp 1040 ------- 0 0.0 3.0 32 56
- 2.24625 2 3 tcp 1040 ------- 0 0.0 3.0 32 56
r 2.2475 2 3 tcp 1040 ------- 0 0.0 3.0 28 44
+ 2.2475 3 2 ack 40 ------- 0 3.0 0.0 28 74
- 2.2475 3 2 ack 40 ------- 0 3.0 0.0 28 74
r 2.249375 3 2 ack 40 ------- 0 3.0 0.0 25 66
+ 2.249375 2 0 ack 40 ------- 0 3.0 0.0 25 66
- 2.249375 2 0 ack 40 ------- 0 3.0 0.0 25 66
r 2.25125 2 0 ack 40 ------- 0 3.0 0.0 22 57
+ 2.25125 0 2 tcp 1040 ------- 0 0.0 3.0 42 75
- 2.26125 0 2 tcp 1040 ------- 0 0.0 3.0 37 64
r 2.2625 0 2 tcp 1040 ------- 0 0.0 3.0 33 58
+ 2.2625 2 3 tcp 1040 ------- 0 0.0 3.0 33 58
- 2.2625 2 3 tcp 1040 ------- 0 0.0 3.0 33 58
r 2.26375 2 3 tcp 1040 ------- 0 0.0 3.0 29 45
+ 2.26375 3 2 ack 40 ------- 0 3.0 0.0 29 76
- 2.26375 3 2 ack 40 ------- 0 3.0 0.0 29 76
r 2.265625 3 2 ack 40 ------- 0 3.0 0.0 26 70
+ 2.265625 2 0 ack 40 ------- 0 3.0 0.0 26 70
- 2.265625 2 0 ack 40 ------- 0 3.0 0.0 26 70
r 2.2675 2 0 ack 40 ------- 0 3.0 0.0 23 60
+ 2.2675 0 2 tcp 1040 ------- 0 0.0 3.0 43 77
r 2.26875 1 2 tcp 1040 ------- 0 1.0 4.0 1 68
+ 2.26875 2 4 tcp 1040 ------- 0 1.0 4.0 1 68
- 2.26875 2 4 tcp 1040 ------- 0 1.0 4.0 1 68
- 2.2775 0 2 tcp 1040 ------- 0 0.0 3.0 38 65
r 2.27875 0 2 tcp 1040 ------- 0 0.0 3.0 34 59
+ 2.27875 2 3 tcp 1040 ------- 0 0.0 3.0 34 59
- 2.27875 2 3 tcp 1040 ------- 0 0.0 3.0 34 59
r 2.28 2 3 tcp 1040 ------- 0 0.0 3.0 30 46
+ 2.28 3 2 ack 40 ------- 0 3.0 0.0 30 78
- 2.28 3 2 ack 40 ------- 0 3.0 0.0 30 78
r 2.281875 3 2 ack 40 ------- 0 3.0 0.0 27 72
+ 2.281875 2 0 ack 40 ------- 0 3.0 0.0 27 72
- 2.281875 2 0 ack 40 ------- 0 3.0 0.0 27 72
r 2.28375 2 0 ack 40 ------- 0 3.0 0.0 24 63
+ 2.28375 0 2 tcp 1040 ------- 0 0.0 3.0 44 79
r 2.285 1 2 tcp 1040 ------- 0 1.0 4.0 2 69
+ 2.285 2 4 tcp 1040 ------- 0 1.0 4.0 2 69
- 2.285 2 4 tcp 1040 ------- 0 1.0 4.0 2 69
- 2.29375 0 2 tcp 1040 ------- 0 0.0 3.0 39 67
r 2.295 0 2 tcp 1040 ------- 0 0.0 3.0 35 61
+ 2.295 2 3 tcp 1040 ------- 0 0.0 3.0 35 61
- 2.295 2 3 tcp 1040 ------- 0 0.0 3.0 35 61
r 2.29625 2 3 tcp 1040 ------- 0 0.0 3.0 31 55
+ 2.29625 3 2 ack 40 ------- 0 3.0 0.0 31 80
- 2.29625 3 2 ack 40 ------- 0 3.0 0.0 31 80
r 2.298125 3 2 ack 40 ------- 0 3.0 0.0 28 74
+ 2.298125 2 0 ack 40 ------- 0 3.0 0.0 28 74
- 2.298125 2 0 ack 40 ------- 0 3.0 0.0 28 74
r 2.3 2 0 ack 40 ------- 0 3.0 0.0 25 66
+ 2.3 0 2 tcp 1040 ------- 0 0.0 3.0 45 81
- 2.31 0 2 tcp 1040 ------- 0 0.0 3.0 40 71
r 2.31125 0 2 tcp 1040 ------- 0 0.0 3.0 36 62
+ 2.31125 2 3 tcp 1040 ------- 0 0.0 3.0 36 62
- 2.31125 2 3 tcp 1040 ------- 0 0.0 3.0 36 62
r 2.3125 2 3 tcp 1040 ------- 0 0.0 3.0 32 56
+ 2.3125 3 2 ack 40 ------- 0 3.0 0.0 32 82
- 2.3125 3 2 ack 40 ------- 0 3.0 0.0 32 82
r 2.314375 3 2 ack 40 ------- 0 3.0 0.0 29 76
+ 2.314375 2 0 ack 40 ------- 0 3.0 0.0 29 76
- 2.314375 2 0 ack 40 ------- 0 3.0 0.0 29 76
r 2.31625 2 0 ack 40 ------- 0 3.0 0.0 26 70
+ 2.31625 0 2 tcp 1040 ------- 0 0.0 3.0 46 83
- 2.32625 0 2 tcp 1040 ------- 0 0.0 3.0 41 73
r 2.3275 0 2 tcp 1040 ------- 0 0.0 3.0 37 64
+ 2.3275 2 3 tcp 1040 ------- 0 0.0 3.0 37 64
- 2.3275 2 3 tcp 1040 ------- 0 0.0 3.0 37 64
r 2.32875 2 3 tcp 1040 ------- 0 0.0 3.0 33 58
+ 2.32875 3 2 ack 40 ------- 0 3.0 0.0 33 84
- 2.32875 3 2 ack 40 ------- 0 3.0 0.0 33 84
r 2.330625 3 2 ack 40 ------- 0 3.0 0.0 30 78
+ 2.330625 2 0 ack 40 ------- 0 3.0 0.0 30 78
- 2.330625 2 0 ack 40 ------- 0 3.0 0.0 30 78
r 2.3325 2 0 ack 40 ------- 0 3.0 0.0 27 72
+ 2.3325 0 2 tcp 1040 ------- 0 0.0 3.0 47 85
r 2.335 2 4 tcp 1040 ------- 0 1.0 4.0 1 68
+ 2.335 4 2 ack 40 ------- 0 4.0 1.0 1 86
- 2.335 4 2 ack 40 ------- 0 4.0 1.0 1 86
- 2.3425 0 2 tcp 1040 ------- 0 0.0 3.0 42 75
r 2.34375 0 2 tcp 1040 ------- 0 0.0 3.0 38 65
+ 2.34375 2 3 tcp 1040 ------- 0 0.0 3.0 38 65
- 2.34375 2 3 tcp 1040 ------- 0 0.0 3.0 38 65
r 2.345 2 3 tcp 1040 ------- 0 0.0 3.0 34 59
+ 2.345 3 2 ack 40 ------- 0 3.0 0.0 34 87
- 2.345 3 2 ack 40 ------- 0 3.0 0.0 34 87
r 2.346875 3 2 ack 40 ------- 0 3.0 0.0 31 80
+ 2.346875 2 0 ack 40 ------- 0 3.0 0.0 31 80
- 2.346875 2 0 ack 40 ------- 0 3.0 0.0 31 80
r 2.34875 2 0 ack 40 ------- 0 3.0 0.0 28 74
+ 2.34875 0 2 tcp 1040 ------- 0 0.0 3.0 48 88
r 2.35125 2 4 tcp 1040 ------- 0 1.0 4.0 2 69
+ 2.35125 4 2 ack 40 ------- 0 4.0 1.0 2 89
- 2.35125 4 2 ack 40 ------- 0 4.0 1.0 2 89
- 2.35875 0 2 tcp 1040 ------- 0 0.0 3.0 43 77
r 2.36 0 2 tcp 1040 ------- 0 0.0 3.0 39 67
+ 2.36 2 3 tcp 1040 ------- 0 0.0 3.0 39 67
- 2.36 2 3 tcp 1040 ------- 0 0.0 3.0 39 67
r 2.36125 2 3 tcp 1040 ------- 0 0.0 3.0 35 61
+ 2.36125 3 2 ack 40 ------- 0 3.0 0.0 35 90
- 2.36125 3 2 ack 40 ------- 0 3.0 0.0 35 90
r 2.363125 3 2 ack 40 ------- 0 3.0 0.0 32 82
+ 2.363125 2 0 ack 40 ------- 0 3.0 0.0 32 82
- 2.363125 2 0 ack 40 ------- 0 3.0 0.0 32 82
r 2.365 2 0 ack 40 ------- 0 3.0 0.0 29 76
+ 2.365 0 2 tcp 1040 ------- 0 0.0 3.0 49 91
- 2.375 0 2 tcp 1040 ------- 0 0.0 3.0 44 79
r 2.37625 0 2 tcp 1040 ------- 0 0.0 3.0 40 71
+ 2.37625 2 3 tcp 1040 ------- 0 0.0 3.0 40 71
- 2.37625 2 3 tcp 1040 ------- 0 0.0 3.0 40 71
r 2.3775 2 3 tcp 1040 ------- 0 0.0 3.0 36 62
+ 2.3775 3 2 ack 40 ------- 0 3.0 0.0 36 92
- 2.3775 3 2 ack 40 ------- 0 3.0 0.0 36 92
r 2.379375 3 2 ack 40 ------- 0 3.0 0.0 33 84
+ 2.379375 2 0 ack 40 ------- 0 3.0 0.0 33 84
- 2.379375 2 0 ack 40 ------- 0 3.0 0.0 33 84
r 2.38125 2 0 ack 40 ------- 0 3.0 0.0 30 78
+ 2.38125 0 2 tcp 1040 ------- 0 0.0 3.0 50 93
r 2.385625 4 2 ack 40 ------- 0 4.0 1.0 1 86
+ 2.385625 2 1 ack 40 ------- 0 4.0 1.0 1 86
- 2.385625 2 1 ack 40 ------- 0 4.0 1.0 1 86
- 2.39125 0 2 tcp 1040 ------- 0 0.0 3.0 45 81
r 2.3925 0 2 tcp 1040 ------- 0 0.0 3.0 41 73
+ 2.3925 2 3 tcp 1040 ------- 0 0.0 3.0 41 73
- 2.3925 2 3 tcp 1040 ------- 0 0.0 3.0 41 73
r 2.39375 2 3 tcp 1040 ------- 0 0.0 3.0 37 64
+ 2.39375 3 2 ack 40 ------- 0 3.0 0.0 37 94
- 2.39375 3 2 ack 40 ------- 0 3.0 0.0 37 94
r 2.395625 3 2 ack 40 ------- 0 3.0 0.0 34 87
+ 2.395625 2 0 ack 40 ------- 0 3.0 0.0 34 87
- 2.395625 2 0 ack 40 ------- 0 3.0 0.0 34 87
r 2.3975 2 0 ack 40 ------- 0 3.0 0.0 31 80
+ 2.3975 0 2 tcp 1040 ------- 0 0.0 3.0 51 95
r 2.401875 4 2 ack 40 ------- 0 4.0 1.0 2 89
+ 2.401875 2 1 ack 40 ------- 0 4.0 1.0 2 89
- 2.401875 2 1 ack 40 ------- 0 4.0 1.0 2 89
- 2.4075 0 2 tcp 1040 ------- 0 0.0 3.0 46 83
r 2.40875 0 2 tcp 1040 ------- 0 0.0 3.0 42 75
+ 2.40875 2 3 tcp 1040 ------- 0 0.0 3.0 42 75
- 2.40875 2 3 tcp 1040 ------- 0 0.0 3.0 42 75
r 2.41 2 3 tcp 1040 ------- 0 0.0 3.0 38 65
+ 2.41 3 2 ack 40 ------- 0 3.0 0.0 38 96
- 2.41 3 2 ack 40 ------- 0 3.0 0.0 38 96
r 2.411875 3 2 ack 40 ------- 0 3.0 0.0 35 90
+ 2.411875 2 0 ack 40 ------- 0 3.0 0.0 35 90
- 2.411875 2 0 ack 40 ------- 0 3.0 0.0 35 90
r 2.41375 2 0 ack 40 ------- 0 3.0 0.0 32 82
+ 2.41375 0 2 tcp 1040 ------- 0 0.0 3.0 52 97
- 2.42375 0 2 tcp 1040 ------- 0 0.0 3.0 47 85
r 2.425 0 2 tcp 1040 ------- 0 0.0 3.0 43 77
+ 2.425 2 3 tcp 1040 ------- 0 0.0 3.0 43 77
- 2.425 2 3 tcp 1040 ------- 0 0.0 3.0 43 77
r 2.42625 2 3 tcp 1040 ------- 0 0.0 3.0 39 67
+ 2.42625 3 2 ack 40 ------- 0 3.0 0.0 39 98
- 2.42625 3 2 ack 40 ------- 0 3.0 0.0 39 98
r 2.428125 3 2 ack 40 ------- 0 3.0 0.0 36 92
+ 2.428125 2 0 ack 40 ------- 0 3.0 0.0 36 92
- 2.428125 2 0 ack 40 ------- 0 3.0 0.0 36 92
r 2.43 2 0 ack 40 ------- 0 3.0 0.0 33 84
+ 2.43 0 2 tcp 1040 ------- 0 0.0 3.0 53 99
r 2.43625 2 1 ack 40 ------- 0 4.0 1.0 1 86
+ 2.43625 1 2 tcp 1040 ------- 0 1.0 4.0 3 100
- 2.43625 1 2 tcp 1040 ------- 0 1.0 4.0 3 100
+ 2.43625 1 2 tcp 1040 ------- 0 1.0 4.0 4 101
- 2.44 0 2 tcp 1040 ------- 0 0.0 3.0 48 88
r 2.44125 0 2 tcp 1040 ------- 0 0.0 3.0 44 79
+ 2.44125 2 3 tcp 1040 ------- 0 0.0 3.0 44 79
- 2.44125 2 3 tcp 1040 ------- 0 0.0 3.0 44 79
r 2.4425 2 3 tcp 1040 ------- 0 0.0 3.0 40 71
+ 2.4425 3 2 ack 40 ------- 0 3.0 0.0 40 102
- 2.4425 3 2 ack 40 ------- 0 3.0 0.0 40 102
r 2.444375 3 2 ack 40 ------- 0 3.0 0.0 37 94
+ 2.444375 2 0 ack 40 ------- 0 3.0 0.0 37 94
- 2.444375 2 0 ack 40 ------- 0 3.0 0.0 37 94
r 2.44625 2 0 ack 40 ------- 0 3.0 0.0 34 87
+ 2.44625 0 2 tcp 1040 ------- 0 0.0 3.0 54 103
r 2.4525 2 1 ack 40 ------- 0 4.0 1.0 2 89
+ 2.4525 1 2 tcp 1040 ------- 0 1.0 4.0 5 104
+ 2.4525 1 2 tcp 1040 ------- 0 1.0 4.0 6 105
- 2.4525 1 2 tcp 1040 ------- 0 1.0 4.0 4 101
- 2.45625 0 2 tcp 1040 ------- 0 0.0 3.0 49 91
r 2.4575 0 2 tcp 1040 ------- 0 0.0 3.0 45 81
+ 2.4575 2 3 tcp 1040 ------- 0 0.0 3.0 45 81
- 2.4575 2 3 tcp 1040 ------- 0 0.0 3.0 45 81
r 2.45875 2 3 tcp 1040 ------- 0 0.0 3.0 41 73
+ 2.45875 3 2 ack 40 ------- 0 3.0 0.0 41 106
- 2.45875 3 2 ack 40 ------- 0 3.0 0.0 41 106
r 2.460625 3 2 ack 40 ------- 0 3.0 0.0 38 96
+ 2.460625 2 0 ack 40 ------- 0 3.0 0.0 38 96
- 2.460625 2 0 ack 40 ------- 0 3.0 0.0 38 96
r 2.4625 2 0 ack 40 ------- 0 3.0 0.0 35 90
+ 2.4625 0 2 tcp 1040 ------- 0 0.0 3.0 55 107
- 2.46875 1 2 tcp 1040 ------- 0 1.0 4.0 5 104
- 2.4725 0 2 tcp 1040 ------- 0 0.0 3.0 50 93
r 2.47375 0 2 tcp 1040 ------- 0 0.0 3.0 46 83
+ 2.47375 2 3 tcp 1040 ------- 0 0.0 3.0 46 83
- 2.47375 2 3 tcp 1040 ------- 0 0.0 3.0 46 83
r 2.475 2 3 tcp 1040 ------- 0 0.0 3.0 42 75
+ 2.475 3 2 ack 40 ------- 0 3.0 0.0 42 108
- 2.475 3 2 ack 40 ------- 0 3.0 0.0 42 108
r 2.476875 3 2 ack 40 ------- 0 3.0 0.0 39 98
+ 2.476875 2 0 ack 40 ------- 0 3.0 0.0 39 98
- 2.476875 2 0 ack 40 ------- 0 3.0 0.0 39 98
r 2.47875 2 0 ack 40 ------- 0 3.0 0.0 36 92
+ 2.47875 0 2 tcp 1040 ------- 0 0.0 3.0 56 109
- 2.485 1 2 tcp 1040 ------- 0 1.0 4.0 6 105
- 2.48875 0 2 tcp 1040 ------- 0 0.0 3.0 51 95
r 2.49 0 2 tcp 1040 ------- 0 0.0 3.0 47 85
+ 2.49 2 3 tcp 1040 ------- 0 0.0 3.0 47 85
- 2.49 2 3 tcp 1040 ------- 0 0.0 3.0 47 85
r 2.49125 2 3 tcp 1040 ------- 0 0.0 3.0 43 77
+ 2.49125 3 2 ack 40 ------- 0 3.0 0.0 43 110
- 2.49125 3 2 ack 40 ------- 0 3.0 0.0 43 110
r 2.493125 3 2 ack 40 ------- 0 3.0 0.0 40 102
+ 2.493125 2 0 ack 40 ------- 0 3.0 0.0 40 102
- 2.493125 2 0 ack 40 ------- 0 3.0 0.0 40 102
r 2.495 2 0 ack 40 ------- 0 3.0 0.0 37 94
+ 2.495 0 2 tcp 1040 ------- 0 0.0 3.0 57 111
r 2.5025 1 2 tcp 1040 ------- 0 1.0 4.0 3 100
+ 2.5025 2 4 tcp 1040 ------- 0 1.0 4.0 3 100
- 2.5025 2 4 tcp 1040 ------- 0 1.0 4.0 3 100
- 2.505 0 2 tcp 1040 ------- 0 0.0 3.0 52 97
r 2.50625 0 2 tcp 1040 ------- 0 0.0 3.0 48 88
+ 2.50625 2 3 tcp 1040 ------- 0 0.0 3.0 48 88
- 2.50625 2 3 tcp 1040 ------- 0 0.0 3.0 48 88
r 2.5075 2 3 tcp 1040 ------- 0 0.0 3.0 44 79
+ 2.5075 3 2 ack 40 ------- 0 3.0 0.0 44 112
- 2.5075 3 2 ack 40 ------- 0 3.0 0.0 44 112
r 2.509375 3 2 ack 40 ------- 0 3.0 0.0 41 106
+ 2.509375 2 0 ack 40 ------- 0 3.0 0.0 41 106
- 2.509375 2 0 ack 40 ------- 0 3.0 0.0 41 106
r 2.51125 2 0 ack 40 ------- 0 3.0 0.0 38 96
+ 2.51125 0 2 tcp 1040 ------- 0 0.0 3.0 58 113
r 2.51875 1 2 tcp 1040 ------- 0 1.0 4.0 4 101
+ 2.51875 2 4 tcp 1040 ------- 0 1.0 4.0 4 101
- 2.51875 2 4 tcp 1040 ------- 0 1.0 4.0 4 101
- 2.52125 0 2 tcp 1040 ------- 0 0.0 3.0 53 99
r 2.5225 0 2 tcp 1040 ------- 0 0.0 3.0 49 91
+ 2.5225 2 3 tcp 1040 ------- 0 0.0 3.0 49 91
- 2.5225 2 3 tcp 1040 ------- 0 0.0 3.0 49 91
r 2.52375 2 3 tcp 1040 ------- 0 0.0 3.0 45 81
+ 2.52375 3 2 ack 40 ------- 0 3.0 0.0 45 114
- 2.52375 3 2 ack 40 ------- 0 3.0 0.0 45 114
r 2.525625 3 2 ack 40 ------- 0 3.0 0.0 42 108
+ 2.525625 2 0 ack 40 ------- 0 3.0 0.0 42 108
- 2.525625 2 0 ack 40 ------- 0 3.0 0.0 42 108
r 2.5275 2 0 ack 40 ------- 0 3.0 0.0 39 98
+ 2.5275 0 2 tcp 1040 ------- 0 0.0 3.0 59 115
r 2.535 1 2 tcp 1040 ------- 0 1.0 4.0 5 104
+ 2.535 2 4 tcp 1040 ------- 0 1.0 4.0 5 104
- 2.535 2 4 tcp 1040 ------- 0 1.0 4.0 5 104
- 2.5375 0 2 tcp 1040 ------- 0 0.0 3.0 54 103
r 2.53875 0 2 tcp 1040 ------- 0 0.0 3.0 50 93
+ 2.53875 2 3 tcp 1040 ------- 0 0.0 3.0 50 93
- 2.53875 2 3 tcp 1040 ------- 0 0.0 3.0 50 93
r 2.54 2 3 tcp 1040 ------- 0 0.0 3.0 46 83
+ 2.54 3 2 ack 40 ------- 0 3.0 0.0 46 116
- 2.54 3 2 ack 40 ------- 0 3.0 0.0 46 116
r 2.541875 3 2 ack 40 ------- 0 3.0 0.0 43 110
+ 2.541875 2 0 ack 40 ------- 0 3.0 0.0 43 110
- 2.541875 2 0 ack 40 ------- 0 3.0 0.0 43 110
r 2.54375 2 0 ack 40 ------- 0 3.0 0.0 40 102
+ 2.54375 0 2 tcp 1040 ------- 0 0.0 3.0 60 117
r 2.55125 1 2 tcp 1040 ------- 0 1.0 4.0 6 105
+ 2.55125 2 4 tcp 1040 ------- 0 1.0 4.0 6 105
- 2.55125 2 4 tcp 1040 ------- 0 1.0 4.0 6 105
- 2.55375 0 2 tcp 1040 ------- 0 0.0 3.0 55 107
r 2.555 0 2 tcp 1040 ------- 0 0.0 3.0 51 95
+ 2.555 2 3 tcp 1040 ------- 0 0.0 3.0 51 95
- 2.555 2 3 tcp 1040 ------- 0 0.0 3.0 51 95
r 2.55625 2 3 tcp 1040 ------- 0 0.0 3.0 47 85
+ 2.55625 3 2 ack 40 ------- 0 3.0 0.0 47 118
- 2.55625 3 2 ack 40 ------- 0 3.0 0.0 47 118
r 2.558125 3 2 ack 40 ------- 0 3.0 0.0 44 112
+ 2.558125 2 0 ack 40 ------- 0 3.0 0.0 44 112
- 2.558125 2 0 ack 40 ------- 0 3.0 0.0 44 112
r 2.56 2 0 ack 40 ------- 0 3.0 0.0 41 106
+ 2.56 0 2 tcp 1040 ------- 0 0.0 3.0 61 119
r 2.56875 2 4 tcp 1040 ------- 0 1.0 4.0 3 100
+ 2.56875 4 2 ack 40 ------- 0 4.0 1.0 3 120
- 2.56875 4 2 ack 40 ------- 0 4.0 1.0 3 120
- 2.57 0 2 tcp 1040 ------- 0 0.0 3.0 56 109
r 2.57125 0 2 tcp 1040 ------- 0 0.0 3.0 52 97
+ 2.57125 2 3 tcp 1040 ------- 0 0.0 3.0 52 97
- 2.57125 2 3 tcp 1040 ------- 0 0.0 3.0 52 97
r 2.5725 2 3 tcp 1040 ------- 0 0.0 3.0 48 88
+ 2.5725 3 2 ack 40 ------- 0 3.0 0.0 48 121
- 2.5725 3 2 ack 40 ------- 0 3.0 0.0 48 121